/*--------------------------------*- C++ -*----------------------------------*\
| =========                 |                                                 |
| \\      /  F ield         | OpenFOAM: The Open Source CFD Toolbox           |
|  \\    /   O peration     | Version:  v1812                                 |
|   \\  /    A nd           | Web:      www.OpenFOAM.com                      |
|    \\/     M anipulation  |                                                 |
\*---------------------------------------------------------------------------*/
FoamFile
{
    version     2.0;
    format      ascii;
    class       volScalarField;
    location    "0";
    object      surfaceFriction;
}
// * * * * * * * * * * * * * * * * * * * * * * * * * * * * * * * * * * * * * //

dimensions      [0 0 0 0 0 0 0];


internalField   uniform 0;

boundaryField
{
    bottomWall
    {
        type            calculated;
        value           nonuniform List<scalar> 
99
(
0.001878429184692279
0.001597833768227978
-9.367473675624393e-05
-0.001118285383124945
-0.001675184893671397
-0.001992623115306948
-0.001321880296341452
-0.001077057510849458
-0.002268063172260237
-0.001013089665876281
-0.001264862333042273
-0.001471683837387218
-0.002568010472896406
-0.002070370104016061
-0.002322659579209656
-0.002524075383584926
-0.00268464425208073
-0.00249161385531124
-0.002398044357693269
-0.00267045534624329
-0.003592533116759303
-0.0024077775772485
-0.002973142699385364
-0.003406248021419296
-0.003726982860285442
-0.003920042831956101
-0.0040491686922569
-0.004098665014977249
-0.004052055485362444
-0.003987245015272158
-0.003885573584972277
-0.003709678580684189
-0.003546986503749923
-0.003364299845930251
-0.003155255217409603
-0.002996212537161647
-0.002812192917358645
-0.002580654198890266
-0.002355363441575359
-0.002175959844449443
-0.001984908756130479
-0.001790426489250433
-0.001573636450073877
-0.001377872818454172
-0.001176707330845744
-0.0009955368164918002
-0.0007708096543292932
-0.0005910729413642425
-0.0004077446995136175
-0.0002271103367532919
-4.936042714028725e-05
9.347008327828058e-05
0.0001907177675283176
0.000327089308229139
0.0004430686099478977
0.0005481184233258074
0.0007003867912759278
0.0007984606557581173
0.0008835831352830574
0.000960094078628748
0.001051447300200779
0.001144976520343971
0.001209030132394125
0.001258138552835227
0.00129488627962858
0.001329349288391032
0.001336638288440358
0.001323496057516554
0.001310384629605116
0.001295462927949755
0.001258399941223936
0.001209407001618487
0.00111423208371229
0.0009813955275400081
0.0008479551994953632
0.0006598312795228251
0.000424616327500829
0.0001307847779696643
-0.001027022796997703
0.0002089563816841827
0.0005519541422963988
0.000879602307665256
0.004562022526504078
0.002185273163998329
0.002870887745406227
0.003859562416989198
0.00426204714425541
0.006332055986571098
0.006959647180655324
0.007574055094425617
0.01007033305687525
0.01238125329416969
0.01477835238381384
0.02684408726414411
0.0231351667647265
0.01809829709339273
0.009321338263675982
0.004894968415731234
0.00252708594444251
)
;
    }
    defaultFaces
    {
        type            symmetry;
    }
    inlet
    {
        type            cyclic;
    }
    outlet
    {
        type            cyclic;
    }
    topWall
    {
        type            calculated;
        value           nonuniform List<scalar> 
99
(
-0.01018923086683182
-0.01021306646038531
-0.01021904576062285
-0.01020752089772127
-0.0101787737079557
-0.01013300116925597
-0.01007056703014257
-0.009992573485244826
-0.00990039976620443
-0.009795086025236453
-0.009678239656196097
-0.009551931385692792
-0.009417834080778415
-0.009277124765995562
-0.00913152776036771
-0.008982311193086434
-0.008831373170592408
-0.008680061967225783
-0.008529367486323037
-0.00838018683841615
-0.008233630392243323
-0.00809046995336622
-0.007951346943881804
-0.007816410193697828
-0.007685541834296688
-0.007558988868218769
-0.007436687712937801
-0.00731860855685457
-0.007204901275694721
-0.007094911010793192
-0.006990354627039817
-0.00689090301958819
-0.006794828974982608
-0.006702861404141613
-0.006613714117930444
-0.006527318678692582
-0.006443837097264655
-0.006363810466309457
-0.00628629757352266
-0.006212915142558141
-0.006144460506209646
-0.006079340860834657
-0.006015005089045679
-0.005951890532078668
-0.005891038373126317
-0.005833259107030455
-0.005779252036062246
-0.005729629131197672
-0.005684551322359884
-0.0056444226132481
-0.00560838869672891
-0.005577883778392944
-0.005554917874224258
-0.005540455904640845
-0.005533991736762958
-0.005535834019968544
-0.005546246187692162
-0.005565554465274358
-0.005592713929457231
-0.005626936213443769
-0.005669209484866249
-0.005720621130900213
-0.005780664753628598
-0.005849402867311243
-0.005926917252229202
-0.006012290925535874
-0.006105195681687329
-0.006205430617981116
-0.006311586912416972
-0.006423695905133292
-0.00654172939910838
-0.00666537102176729
-0.006794175788679608
-0.006927265531528767
-0.007063869713036713
-0.007203321900975261
-0.007345363659237695
-0.007489755237676186
-0.007635474591343661
-0.007782256824723198
-0.007929910391709035
-0.008077996481150339
-0.00822631105735281
-0.008374303815820851
-0.008522036997661631
-0.008669301377483622
-0.00881533197082596
-0.008959589049950692
-0.009101429430681212
-0.009239989707218298
-0.009374353694095722
-0.009503189492868595
-0.009625350858004623
-0.009739848993845614
-0.009845524596863116
-0.00994061007468206
-0.01002374030807947
-0.01009365183898354
-0.01014890313415968
)
;
    }
}


// ************************************************************************* //
