/*--------------------------------*- C++ -*----------------------------------*\
| =========                 |                                                 |
| \\      /  F ield         | OpenFOAM: The Open Source CFD Toolbox           |
|  \\    /   O peration     | Version:  v1812                                 |
|   \\  /    A nd           | Web:      www.OpenFOAM.com                      |
|    \\/     M anipulation  |                                                 |
\*---------------------------------------------------------------------------*/
FoamFile
{
    version     2.0;
    format      ascii;
    class       volScalarField;
    location    "0";
    object      surfaceFriction;
}
// * * * * * * * * * * * * * * * * * * * * * * * * * * * * * * * * * * * * * //

dimensions      [0 0 0 0 0 0 0];


internalField   uniform 0;

boundaryField
{
    bottomWall
    {
        type            calculated;
        value           nonuniform List<scalar> 
99
(
0.003764579637504342
0.004376466716487198
0.001530750767040578
-0.003223398475363478
-0.004057226360070001
-0.003204700696650202
-0.002617797115644213
-0.00169604325744968
-0.001194674755171216
-0.0007635783131729113
-0.0006356333863944255
-0.0006699501449635868
-0.0008544411958727615
-0.001021083634515244
-0.00111929351607081
-0.001081667472035314
-0.000960458806067174
-0.0008059911455029212
-0.000611925711250117
-0.0004909919300868377
-0.0004423478300573356
-0.0009598086769054885
-0.001748129375724135
-0.002383421816505891
-0.002932034036040568
-0.00336796375623336
-0.003718010974899992
-0.003990104291848836
-0.004198245938165459
-0.00435517124568321
-0.004470692007913196
-0.004548293441877345
-0.004593726048010078
-0.004610334459779226
-0.004601411499874372
-0.004570629704830494
-0.004520527757381532
-0.004454275989765442
-0.004373581684324822
-0.004281334264836708
-0.004178863643223526
-0.004068583918085422
-0.00395164217122723
-0.003829993713002634
-0.003704568162383006
-0.003576704538855207
-0.003447333366634913
-0.003317548198813438
-0.003188024834941286
-0.003059494214795485
-0.002932507133132571
-0.002807652504554324
-0.002685308878540908
-0.002565920275647694
-0.002449769306443028
-0.002337145770562191
-0.002228270639316108
-0.00212334805509869
-0.002022541147033631
-0.001926005160131352
-0.00183390173639083
-0.00174629843446299
-0.001663394887975496
-0.001585197292177001
-0.001511870615347117
-0.001443579460716968
-0.00138034308743648
-0.001322452964963966
-0.001269976187702948
-0.001223053296112441
-0.001182067832924984
-0.001146820458187564
-0.001118021809403712
-0.001095135522336218
-0.00107995316340499
-0.001071126404072594
-0.001083464074927748
-0.00107269757999181
-0.001080448817409741
-0.001114733475093895
-0.001126459085351051
-0.001084961869704732
-0.000964522764717021
-0.0007266285622810415
-0.0003066245849404526
0.0003357446670788477
0.001201273283852471
0.002234146215010094
0.003354101864945146
0.004780432091943561
0.006685719098046492
0.009926569869742795
0.01499563295236669
0.02175752152587257
0.02892806246824716
0.02870690849020089
0.01837830286412329
0.007468470295169292
0.002719368394022483
)
;
    }
    defaultFaces
    {
        type            symmetry;
    }
    inlet
    {
        type            cyclic;
    }
    outlet
    {
        type            cyclic;
    }
    topWall
    {
        type            calculated;
        value           nonuniform List<scalar> 
99
(
-0.01064596917361278
-0.01060177469773169
-0.01061138509798448
-0.01054981520975405
-0.01051468868348081
-0.01044067137722809
-0.01036261999364182
-0.0102674104226015
-0.01016092374141949
-0.01004295333220447
-0.009916393921853783
-0.009781016576325017
-0.00963934840520349
-0.00949350232431103
-0.00934440058062728
-0.009194253503617892
-0.009044493823951985
-0.008895741071873738
-0.008749976702562319
-0.008607442368372244
-0.008469868511836346
-0.008337244180755316
-0.008210295616059522
-0.008089474048846364
-0.007975445252684734
-0.007868033213650621
-0.007767586081301308
-0.007674092934327977
-0.007587433973168569
-0.007507668609316928
-0.007434598477444535
-0.007369073431929977
-0.007310370985197307
-0.007257687001473503
-0.007211613813051728
-0.007171799781243458
-0.007137926399311344
-0.00711046115143826
-0.007088434805937337
-0.007072550399836373
-0.007061937364035304
-0.007056966624515988
-0.007057183031509616
-0.007062754467822613
-0.007073480899752534
-0.007089170826566729
-0.007109719992025099
-0.007135131984527058
-0.007165129428616645
-0.007199819307225291
-0.00723884574745671
-0.007282323257297841
-0.007330081664021601
-0.007381958069010178
-0.007437851459127403
-0.007497568404384872
-0.00756094359062074
-0.007628059040775184
-0.007698364797238016
-0.007771940951269477
-0.007848620090247654
-0.007927779755130626
-0.008009777005513183
-0.008093900578506197
-0.008179808453829563
-0.008267496640839443
-0.008356607438799377
-0.00844677253034316
-0.008537516752140322
-0.008628785355432791
-0.008720107190822446
-0.008811243931909078
-0.008901931695555086
-0.008991807248766958
-0.009080748817474353
-0.009168726079821117
-0.009255471470298199
-0.009340957383696143
-0.009425608871016872
-0.009508539160276804
-0.009587406677506386
-0.009664372871006426
-0.00974215490168664
-0.009818077299800406
-0.009892983372703272
-0.009966239612244751
-0.01003860977830028
-0.01010930227511786
-0.01017847313845197
-0.01024550753335874
-0.01031011102321855
-0.01037118143936016
-0.01042887527555755
-0.01048110349771945
-0.01052914218435757
-0.01057149827639576
-0.01060044523667153
-0.01061229583177101
-0.01065074086015392
)
;
    }
}


// ************************************************************************* //
