/*--------------------------------*- C++ -*----------------------------------*\
| =========                 |                                                 |
| \\      /  F ield         | OpenFOAM: The Open Source CFD Toolbox           |
|  \\    /   O peration     | Version:  v1812                                 |
|   \\  /    A nd           | Web:      www.OpenFOAM.com                      |
|    \\/     M anipulation  |                                                 |
\*---------------------------------------------------------------------------*/
FoamFile
{
    version     2.0;
    format      ascii;
    class       volScalarField;
    location    "0.00000001";
    object      nuTilda;
}
// * * * * * * * * * * * * * * * * * * * * * * * * * * * * * * * * * * * * * //

dimensions      [0 2 -1 0 0 0 0];


internalField   nonuniform List<scalar> 
14751
(
1.543694797689695e-06
1.539216564431299e-06
1.537070385626648e-06
1.532622647686847e-06
1.528768442509869e-06
1.523772410807327e-06
1.518571481000853e-06
1.512825469270419e-06
1.506705163991515e-06
1.500197012950324e-06
1.493438534726145e-06
1.486388402296301e-06
1.479109451976708e-06
1.471753727129141e-06
1.464384615753111e-06
1.457045725572467e-06
1.449829384749648e-06
1.44271642442918e-06
1.435806555943186e-06
1.429142759225381e-06
1.422804193168399e-06
1.416770018634444e-06
1.411077308478105e-06
1.405777455786576e-06
1.40090827212251e-06
1.396401900621965e-06
1.392259083009969e-06
1.388476937774167e-06
1.385051973994454e-06
1.382023387814265e-06
1.379389414465538e-06
1.377145226947216e-06
1.375285258424772e-06
1.373796181439628e-06
1.3726779106532e-06
1.371885646211853e-06
1.371427230151236e-06
1.37128463927652e-06
1.371493740665525e-06
1.3719835871382e-06
1.372713421357399e-06
1.373776100365636e-06
1.375150645303029e-06
1.376849938981214e-06
1.378868223129202e-06
1.381138407396126e-06
1.383658089255666e-06
1.386413792490669e-06
1.389393898575096e-06
1.392590269274646e-06
1.395987354844684e-06
1.399590843203005e-06
1.403392920343476e-06
1.407360837146459e-06
1.411487177729642e-06
1.41575656110896e-06
1.420155939326028e-06
1.424676569476107e-06
1.42929794131555e-06
1.434049264302361e-06
1.438927921149655e-06
1.443889138793751e-06
1.448917267360007e-06
1.453922090510921e-06
1.458890901243184e-06
1.463860083202579e-06
1.468809988597629e-06
1.473703793215329e-06
1.478517172727179e-06
1.483263482812083e-06
1.487922987651776e-06
1.492480789446632e-06
1.496921899569375e-06
1.501235845129769e-06
1.505407144564396e-06
1.509429739730373e-06
1.513302027640063e-06
1.517006460999578e-06
1.520557925816762e-06
1.523922561607949e-06
1.527093919629016e-06
1.530046228854068e-06
1.532859301581613e-06
1.535450746751669e-06
1.537861722903987e-06
1.540099021823622e-06
1.542176380893681e-06
1.544033975228594e-06
1.545691292430307e-06
1.547099057570518e-06
1.5482793053242e-06
1.549199064250929e-06
1.549884030254483e-06
1.550219407585987e-06
1.550101226388109e-06
1.549706561677831e-06
1.548501145686803e-06
1.546776785452673e-06
1.544979075671691e-06
4.597038631376976e-06
4.583190001490976e-06
4.576876701244422e-06
4.568155989672689e-06
4.561562589055628e-06
4.553860665719582e-06
4.545989040374217e-06
4.537537152247473e-06
4.528527408882359e-06
4.518878304665217e-06
4.508853500918168e-06
4.498336560731539e-06
4.487390256989141e-06
4.476290714973258e-06
4.465164366560865e-06
4.454029946488799e-06
4.44310778386402e-06
4.432304499529921e-06
4.421864391637408e-06
4.411881641449134e-06
4.402538917530312e-06
4.393800227694425e-06
4.385746157172994e-06
4.378482220841057e-06
4.372093664895425e-06
4.366441363104824e-06
4.361528853811881e-06
4.357351212481199e-06
4.353907824083625e-06
4.351292553670316e-06
4.349516328623143e-06
4.348558597370606e-06
4.348413653008785e-06
4.349081973570442e-06
4.350560099359653e-06
4.352723216424457e-06
4.355637636055328e-06
4.359209537807253e-06
4.363564782037897e-06
4.368541072077228e-06
4.374031566986801e-06
4.380243951890293e-06
4.387153031283419e-06
4.394753900265115e-06
4.40303034047505e-06
4.411831017644426e-06
4.421138805306546e-06
4.430917164664544e-06
4.441125094260417e-06
4.451737253343843e-06
4.4627023712607e-06
4.47402308607972e-06
4.485669038144109e-06
4.497545502159075e-06
4.509619475980804e-06
4.52184117441828e-06
4.534159781205838e-06
4.546538633453335e-06
4.558917334007737e-06
4.571340590761595e-06
4.583792782771591e-06
4.59614885559385e-06
4.608336676331166e-06
4.620158381753533e-06
4.631560884269015e-06
4.642607996641364e-06
4.653240952953595e-06
4.663362769980447e-06
4.672901897261433e-06
4.681870837673354e-06
4.690215083820066e-06
4.697885529631352e-06
4.704833109638674e-06
4.711034373584744e-06
4.716433114821445e-06
4.721006595632983e-06
4.724763279371672e-06
4.727637376255174e-06
4.729661741935307e-06
4.730806423684438e-06
4.731142204131724e-06
4.730387640282135e-06
4.728803759181286e-06
4.726237742716617e-06
4.722811962853478e-06
4.718599161635547e-06
4.713677230252141e-06
4.707917041016041e-06
4.701437676624901e-06
4.694158223110422e-06
4.686218781200395e-06
4.677496249721432e-06
4.668224319387613e-06
4.658284504290995e-06
4.647439197942864e-06
4.636686717469196e-06
4.624835391281856e-06
4.613445562603148e-06
4.602519313809264e-06
7.61935785489835e-06
7.595946957336663e-06
7.587674166682741e-06
7.582414815116179e-06
7.582068947415121e-06
7.583666881777907e-06
7.585913285850462e-06
7.589117678427163e-06
7.592497861685535e-06
7.595829886414546e-06
7.599307704956311e-06
7.602747321421624e-06
7.606021603285778e-06
7.609321501736826e-06
7.61272373950684e-06
7.616073066254204e-06
7.619619979374043e-06
7.623118370792597e-06
7.626877201542121e-06
7.630974248327818e-06
7.635621059837446e-06
7.640772346914583e-06
7.646488678292743e-06
7.652853301194124e-06
7.659946914119758e-06
7.667609757407612e-06
7.675838096462337e-06
7.684612108124622e-06
7.69393292164975e-06
7.70390889747712e-06
7.714572203943388e-06
7.725871367875451e-06
7.737805507418337e-06
7.750430218956955e-06
7.763752536927533e-06
7.777545002785332e-06
7.792002717953405e-06
7.80692171094085e-06
7.822470718884819e-06
7.83850744403582e-06
7.854929650559638e-06
7.871837605428665e-06
7.889250796791228e-06
7.907164115578711e-06
7.925573572209567e-06
7.9442816971976e-06
7.963229083721786e-06
7.982366649867693e-06
8.00161089221304e-06
8.020917073194683e-06
8.040191856938373e-06
8.05941235864338e-06
8.078514236216676e-06
8.097352417191177e-06
8.115849411246488e-06
8.133921220229108e-06
8.151463675822825e-06
8.168400391205875e-06
8.184637334318908e-06
8.200183376738391e-06
8.214996067296691e-06
8.228906136971351e-06
8.241754772343011e-06
8.253338498831987e-06
8.263555971098329e-06
8.272448590623467e-06
8.279935483915912e-06
8.285885771409617e-06
8.290188296761914e-06
8.292831164515046e-06
8.29373419507383e-06
8.292820764908747e-06
8.290005170708569e-06
8.285277451491262e-06
8.278525505742379e-06
8.269717824721288e-06
8.258903494106093e-06
8.245939249656907e-06
8.230904541437374e-06
8.213879940818446e-06
8.195111187726806e-06
8.17376089991595e-06
8.150401455061898e-06
8.124915461559449e-06
8.097544692711456e-06
8.068522137114425e-06
8.038069358892026e-06
8.006110724669428e-06
7.972953360169876e-06
7.938602509201196e-06
7.903443128286866e-06
7.867250452538502e-06
7.830720771829912e-06
7.794028643688709e-06
7.756961051581905e-06
7.721902783823725e-06
7.687685211726573e-06
7.657341460166884e-06
7.630889861226683e-06
1.062364785716929e-05
1.059124155847004e-05
1.058396770089742e-05
1.058785818653716e-05
1.060124396147307e-05
1.062174389061007e-05
1.06444043728808e-05
1.067062546695377e-05
1.069853164886394e-05
1.072774752285163e-05
1.075827928709624e-05
1.07898746065013e-05
1.082206512879523e-05
1.085482938482818e-05
1.088806729845256e-05
1.092137663816047e-05
1.095492025778941e-05
1.098822713217023e-05
1.10215954390006e-05
1.105502455168117e-05
1.108869139176857e-05
1.112251360749622e-05
1.115646795608622e-05
1.119055182317767e-05
1.12247883658597e-05
1.125899394124612e-05
1.129313012244024e-05
1.132713574861384e-05
1.136100139287377e-05
1.139480886505873e-05
1.142860749843772e-05
1.146230106224938e-05
1.149587204865288e-05
1.152943654258044e-05
1.156304880203545e-05
1.159635718013275e-05
1.162962482997065e-05
1.166278612689086e-05
1.169568307915349e-05
1.172826780510292e-05
1.176056597863927e-05
1.179254187103525e-05
1.182431373763166e-05
1.185581360575054e-05
1.188702696164584e-05
1.191776420728016e-05
1.194789636897573e-05
1.197737614448989e-05
1.200606777528465e-05
1.203390757094846e-05
1.206076001134488e-05
1.208656359749094e-05
1.211121761059043e-05
1.213454574925284e-05
1.215641555996365e-05
1.217671988989134e-05
1.219529975722857e-05
1.221204073234216e-05
1.222682943767109e-05
1.223962228788254e-05
1.225034735700414e-05
1.225883711993875e-05
1.226486838126286e-05
1.226827740872508e-05
1.226893210469552e-05
1.226685149526805e-05
1.226195880216739e-05
1.225412203230452e-05
1.224320353236549e-05
1.222916937317497e-05
1.22119202791163e-05
1.219137395797875e-05
1.216739994168051e-05
1.21400453028407e-05
1.210912631969609e-05
1.207461781127191e-05
1.20366533802579e-05
1.199497449524398e-05
1.194975096833902e-05
1.19012075420064e-05
1.184983700448127e-05
1.179395701032968e-05
1.173469192285187e-05
1.167209214999626e-05
1.160654155080591e-05
1.153851522929296e-05
1.146836289429266e-05
1.139633247172658e-05
1.132287016452448e-05
1.124820047819075e-05
1.117298463544386e-05
1.109702740635253e-05
1.102149434630568e-05
1.094712431969643e-05
1.087392240720324e-05
1.080571462082359e-05
1.074186414332867e-05
1.068675645317048e-05
1.064199432405417e-05
1.363170004324523e-05
1.359198977712829e-05
1.358940003151573e-05
1.360757320377345e-05
1.364154543472597e-05
1.368886824481946e-05
1.37408941361629e-05
1.380022410929532e-05
1.386363964423138e-05
1.393033771382652e-05
1.399992949480086e-05
1.407190082871068e-05
1.414563144865002e-05
1.422079521353538e-05
1.429699551351598e-05
1.437357227415275e-05
1.445045182429798e-05
1.452688719585608e-05
1.460309015842478e-05
1.467893613691339e-05
1.475451029917158e-05
1.482964824411383e-05
1.490418927204819e-05
1.49779942480519e-05
1.505098222706956e-05
1.512291982407187e-05
1.519369842549348e-05
1.52631873395626e-05
1.533134738250326e-05
1.539820151877774e-05
1.54638188998161e-05
1.552805278204005e-05
1.559083455445889e-05
1.565233675191507e-05
1.571257747228442e-05
1.577133370928958e-05
1.582834816165037e-05
1.588419915697317e-05
1.593825237001831e-05
1.599088615339814e-05
1.604190188378106e-05
1.609126297313211e-05
1.61391030618102e-05
1.618531936957852e-05
1.622988315848494e-05
1.627264501621018e-05
1.631339973542986e-05
1.635211726094405e-05
1.63886133173326e-05
1.642281321846616e-05
1.645455054742392e-05
1.648372613067188e-05
1.651021969963605e-05
1.653384561280914e-05
1.655442431206577e-05
1.657184771979736e-05
1.658591910840413e-05
1.659650436723777e-05
1.660348661711283e-05
1.660679417854789e-05
1.660635754683213e-05
1.660201347409132e-05
1.659354026397096e-05
1.658082919471021e-05
1.656374792405388e-05
1.654231818558514e-05
1.651649036549318e-05
1.648615940505915e-05
1.645117563749855e-05
1.641149155137329e-05
1.636698185295571e-05
1.631758541109027e-05
1.626309272886117e-05
1.620366258089462e-05
1.613901531112869e-05
1.606911726697019e-05
1.599376474210889e-05
1.591306435712003e-05
1.582723848470627e-05
1.573659393406884e-05
1.564218236513119e-05
1.554147774207849e-05
1.543598464851877e-05
1.53261805939376e-05
1.52123800795852e-05
1.509552538297544e-05
1.497604990402853e-05
1.485464509152255e-05
1.473189081376985e-05
1.460834095571648e-05
1.448490853340979e-05
1.436156951265153e-05
1.423987317442571e-05
1.41213852321857e-05
1.400639539211007e-05
1.390013879259996e-05
1.380257232738402e-05
1.371992932156399e-05
1.365661324149392e-05
1.666471696511134e-05
1.662061438299219e-05
1.662738176904452e-05
1.666505160211925e-05
1.672644827889965e-05
1.680797517082794e-05
1.689782272682311e-05
1.699919899223255e-05
1.710775317550282e-05
1.722202479674479e-05
1.734133587911163e-05
1.74650975346826e-05
1.759187858373083e-05
1.772107695100399e-05
1.785193421362929e-05
1.798311297816931e-05
1.811446089827661e-05
1.824501516393502e-05
1.837481368355274e-05
1.850358325843007e-05
1.863125446857389e-05
1.87575336453744e-05
1.888207826905811e-05
1.900458472078206e-05
1.912482326501741e-05
1.92424733857086e-05
1.935732793519139e-05
1.946916749956448e-05
1.957791082970221e-05
1.96835024290699e-05
1.97857801248378e-05
1.988474482843481e-05
1.998032375536537e-05
2.007307202477856e-05
2.01622887309765e-05
2.024857219579372e-05
2.033091171203561e-05
2.041027487662022e-05
2.048591105016128e-05
2.055838718792492e-05
2.062736001247406e-05
2.069285517537315e-05
2.075499138736908e-05
2.081366078127634e-05
2.086884687194851e-05
2.09204534506703e-05
2.096823207756434e-05
2.101218959880529e-05
2.10521217561887e-05
2.108796498243533e-05
2.111955221841654e-05
2.114676942229725e-05
2.116951457500884e-05
2.118761766787041e-05
2.120088422238876e-05
2.120923334927137e-05
2.121246304243052e-05
2.121045982746273e-05
2.120313022815538e-05
2.119039680751723e-05
2.117223607343767e-05
2.114848431094745e-05
2.111896383425242e-05
2.108362959560852e-05
2.104237091767896e-05
2.099523304906881e-05
2.094220302207183e-05
2.088321357716629e-05
2.081810437209836e-05
2.074681646841684e-05
2.066916463698414e-05
2.058513368856606e-05
2.04943300658454e-05
2.039624355456389e-05
2.029133195422255e-05
2.017962417088787e-05
2.006107538566137e-05
1.99356087184749e-05
1.98034703663351e-05
1.966485822876505e-05
1.952106419977278e-05
1.937013903889204e-05
1.921264871965728e-05
1.90501817538915e-05
1.888270553432562e-05
1.871184245329879e-05
1.853812778001049e-05
1.836257571918866e-05
1.818602632734638e-05
1.800938110458132e-05
1.783380289869267e-05
1.765952520983919e-05
1.748845247963608e-05
1.732309630209849e-05
1.716409993427591e-05
1.701801569649233e-05
1.688541350380908e-05
1.677499592227893e-05
1.669424744494942e-05
1.973987085623856e-05
1.969539520889207e-05
1.971690821049803e-05
1.977970433706756e-05
1.987533192160552e-05
1.999815808403084e-05
2.013377532059401e-05
2.028542686021517e-05
2.044778149068678e-05
2.061850065333447e-05
2.079648505029755e-05
2.098092828519301e-05
2.116957433793212e-05
2.136153724336021e-05
2.155557561801213e-05
2.174989417331473e-05
2.194402911367329e-05
2.213641174266298e-05
2.232701499585846e-05
2.251525712514988e-05
2.270099153773816e-05
2.288374150229052e-05
2.30629679152137e-05
2.32381478695314e-05
2.340895460450669e-05
2.357494960481901e-05
2.373584212263113e-05
2.389133850690192e-05
2.40413082884541e-05
2.418565620831145e-05
2.432430876186024e-05
2.44572504571452e-05
2.458469838848736e-05
2.470707578415786e-05
2.482307588486541e-05
2.493384268355486e-05
2.503833813871963e-05
2.513755126527166e-05
2.523083305181442e-05
2.531880868163045e-05
2.540110875251767e-05
2.54778477564358e-05
2.55491376122166e-05
2.561490587658311e-05
2.567518748252946e-05
2.572994974573763e-05
2.577896232157955e-05
2.582228761743901e-05
2.585974063885726e-05
2.58912973082628e-05
2.591682352336433e-05
2.593622077905628e-05
2.594944063996608e-05
2.59563460123846e-05
2.595676558073224e-05
2.595066289049265e-05
2.593785805662737e-05
2.591829925355012e-05
2.589192874617259e-05
2.585866148195686e-05
2.581852059416964e-05
2.577136869878677e-05
2.571707762615214e-05
2.565566146560944e-05
2.558703574967475e-05
2.551126429171308e-05
2.542836175226225e-05
2.533829466326475e-05
2.52408826787173e-05
2.513605371330032e-05
2.50235088911014e-05
2.490207729351778e-05
2.477232842335794e-05
2.463407534015909e-05
2.448750292127969e-05
2.433268396700097e-05
2.416963266606003e-05
2.399820686291298e-05
2.381864930756193e-05
2.36308800677249e-05
2.343589779569829e-05
2.323411294205347e-05
2.302372616638626e-05
2.280775710015196e-05
2.258592310593967e-05
2.236044412656273e-05
2.213200451130267e-05
2.190188003949306e-05
2.167124636106623e-05
2.144131886567503e-05
2.1213526847691e-05
2.098839190307821e-05
2.076818209883246e-05
2.055639532018646e-05
2.035409226351036e-05
2.016907507372324e-05
2.000261548624135e-05
1.986631537554987e-05
1.97706405756482e-05
2.287061954048005e-05
2.283065391218484e-05
2.287276331102822e-05
2.296668879122971e-05
2.310303962968858e-05
2.327385892717271e-05
2.346236347269649e-05
2.367152918050127e-05
2.38949580826283e-05
2.412933647860079e-05
2.437292910251146e-05
2.462457137381405e-05
2.488126279221835e-05
2.514168212502153e-05
2.540403395746295e-05
2.566595965474579e-05
2.592666298892189e-05
2.618401805895645e-05
2.643788580377698e-05
2.668739672406539e-05
2.693229887658585e-05
2.717194213238989e-05
2.740561233021335e-05
2.76326054471762e-05
2.785250840747546e-05
2.806479824464641e-05
2.826913913259234e-05
2.846520356710557e-05
2.865286384166337e-05
2.883202174171677e-05
2.900268529690605e-05
2.916499981962329e-05
2.93198641211873e-05
2.946611572504641e-05
2.960345526467867e-05
2.973292111323686e-05
2.985375334273198e-05
2.996682997372402e-05
3.00717300282101e-05
3.016907190854754e-05
3.025856042422631e-05
3.034041056255485e-05
3.041475210703161e-05
3.048158113919822e-05
3.054101165550506e-05
3.059307776884902e-05
3.063761781279926e-05
3.067475939913584e-05
3.07043666695187e-05
3.072647427227993e-05
3.074100179177359e-05
3.074789006785305e-05
3.074716221761657e-05
3.073872039499924e-05
3.072244220660764e-05
3.069834228363965e-05
3.066628082830866e-05
3.062627860000524e-05
3.05783041068347e-05
3.052227589694506e-05
3.045825242344711e-05
3.038613297230199e-05
3.03058300379061e-05
3.021739815740411e-05
3.012077217749213e-05
3.001602373197992e-05
2.990318038220823e-05
2.978223628538634e-05
2.965297958317554e-05
2.951506954823068e-05
2.936697259891077e-05
2.920904247841303e-05
2.904151585937353e-05
2.886423208462204e-05
2.867727724633518e-05
2.848074422579839e-05
2.827466792461852e-05
2.805886297259932e-05
2.783355069799923e-05
2.759843092415831e-05
2.735436457276033e-05
2.710333608831718e-05
2.684240246686393e-05
2.657508310312607e-05
2.630131047970363e-05
2.602361531219202e-05
2.574294667120321e-05
2.54607570725067e-05
2.517861031720825e-05
2.489797398240238e-05
2.462056708333023e-05
2.434719085758618e-05
2.408050790419444e-05
2.382498455173279e-05
2.358215436956366e-05
2.336106788978257e-05
2.316383261985743e-05
2.300511263882707e-05
2.289828906989798e-05
2.606876299341514e-05
2.603864082029608e-05
2.610722727795199e-05
2.623838645829563e-05
2.642143606686705e-05
2.664636233049504e-05
2.689384580423907e-05
2.716658335156487e-05
2.745675791472074e-05
2.776015981290317e-05
2.807411957351003e-05
2.839705490540632e-05
2.872527220497487e-05
2.905687749424374e-05
2.938950383722089e-05
2.972020337736756e-05
3.004786367300085e-05
3.036984481795771e-05
3.068591162824871e-05
3.099494430092639e-05
3.129661105250823e-05
3.159012774919901e-05
3.187465774994686e-05
3.214937787755435e-05
3.241383779153354e-05
3.266748207389025e-05
3.290998411321952e-05
3.314103882372633e-05
3.336058090390013e-05
3.356856839957137e-05
3.376516310651232e-05
3.395084065940187e-05
3.412665036078153e-05
3.429008930811761e-05
3.444239557674152e-05
3.458412484630474e-05
3.471494451676325e-05
3.483559533823415e-05
3.494593347710444e-05
3.504655320445299e-05
3.513729770497839e-05
3.521848140917827e-05
3.52902794140945e-05
3.535277765587822e-05
3.540618002044816e-05
3.545059323263051e-05
3.54859549304812e-05
3.551246082819167e-05
3.553004409598426e-05
3.553880873165844e-05
3.553873912774062e-05
3.552983024043878e-05
3.551218236514112e-05
3.548573983283372e-05
3.545044256664397e-05
3.540635621629464e-05
3.535338863572791e-05
3.52916275056296e-05
3.522105764607194e-05
3.514160885917081e-05
3.505335949095373e-05
3.495624458222439e-05
3.485020454211245e-05
3.473531309639864e-05
3.461151267407149e-05
3.447886846795801e-05
3.433740486191194e-05
3.418714424167041e-05
3.402785320781321e-05
3.385730922086643e-05
3.367588403252653e-05
3.348362009728785e-05
3.328060938822354e-05
3.306667254866593e-05
3.284184628091195e-05
3.260622581385329e-05
3.235984415212546e-05
3.210247460257847e-05
3.183433420537551e-05
3.155508865973398e-05
3.12658141756546e-05
3.096817563657992e-05
3.066048425726995e-05
3.034533560281108e-05
3.002343992849928e-05
2.969730488181844e-05
2.936828341089972e-05
2.903791118046234e-05
2.870817734378263e-05
2.838073644192211e-05
2.805761962913597e-05
2.773987905330152e-05
2.743061196054473e-05
2.71352074750444e-05
2.685572733848141e-05
2.66025249230018e-05
2.6378689606643e-05
2.620191108970208e-05
2.60884774120764e-05
2.934544838037125e-05
2.933060311339048e-05
2.943126333818933e-05
2.960545817063326e-05
2.984043336828956e-05
3.012471135968892e-05
3.043607702548673e-05
3.077707774002062e-05
3.113796726719455e-05
3.151384938773866e-05
3.190082250972348e-05
3.22968437652248e-05
3.269760078907901e-05
3.310053781100872e-05
3.35027437469813e-05
3.39007164457833e-05
3.429307652120967e-05
3.467673635801447e-05
3.505141265863658e-05
3.541579823587473e-05
3.576953297939981e-05
3.611175704142215e-05
3.644158008352588e-05
3.67581329870168e-05
3.706098829062689e-05
3.734961443769333e-05
3.762375111141914e-05
3.78831665832572e-05
3.8127911214915e-05
3.83580555867156e-05
3.857399610311784e-05
3.877678919751484e-05
3.896635524657683e-05
3.914055600758067e-05
3.930147995976912e-05
3.944928518590426e-05
3.958406486915647e-05
3.970645877546936e-05
3.981659842499983e-05
3.991506399423713e-05
4.000186932413966e-05
4.007742552261524e-05
4.014197595634486e-05
4.019571173885947e-05
4.023892883950655e-05
4.027181054373721e-05
4.029440795773848e-05
4.03069867993428e-05
4.030955965810463e-05
4.030230405192738e-05
4.028527538399267e-05
4.025853030504096e-05
4.022224370258197e-05
4.017640394170131e-05
4.012101676614926e-05
4.005619406432555e-05
3.998188931597876e-05
3.989825832533128e-05
3.980527326177927e-05
3.97028889841e-05
3.959118793168719e-05
3.947012765633235e-05
3.933966009237956e-05
3.919985819146466e-05
3.905065679033236e-05
3.88920994230377e-05
3.872418764196062e-05
3.854698335615891e-05
3.835898850641199e-05
3.815867013666112e-05
3.794668792535783e-05
3.772292196747619e-05
3.748737692786546e-05
3.723983671944922e-05
3.698030091257078e-05
3.670885582286483e-05
3.642552267975168e-05
3.613004804441149e-05
3.582268470358682e-05
3.550318289147126e-05
3.517288405032691e-05
3.483221140022487e-05
3.448199269259401e-05
3.412312843746756e-05
3.375743659915658e-05
3.338715723648175e-05
3.301415346791328e-05
3.263996907435043e-05
3.226703788931242e-05
3.189715341785943e-05
3.153267578293603e-05
3.117488043135875e-05
3.082733939137592e-05
3.049631274851314e-05
3.018445474722104e-05
2.990350231518832e-05
2.965766426035854e-05
2.946750457795727e-05
2.935224496387061e-05
3.271067413345026e-05
3.271626364249267e-05
3.285399259622117e-05
3.307634463800258e-05
3.336750479385781e-05
3.371518824688912e-05
3.409397246494311e-05
3.450632516209644e-05
3.494008734639888e-05
3.538988760583553e-05
3.585039666395083e-05
3.631911366671044e-05
3.679115882203987e-05
3.726329916283278e-05
3.773214407377663e-05
3.819371359747592e-05
3.864643299614276e-05
3.908686187755133e-05
3.951472972407519e-05
3.992862199663009e-05
4.032821090972975e-05
4.071263170744545e-05
4.108101382603734e-05
4.143251504644033e-05
4.176678954410295e-05
4.208338324809056e-05
4.238215151080267e-05
4.266298231302622e-05
4.292608588021845e-05
4.317169943377867e-05
4.340061897118905e-05
4.361412620114071e-05
4.381068938890846e-05
4.398976649250334e-05
4.415345071218136e-05
4.430177692300816e-05
4.443517583049513e-05
4.455424947014317e-05
4.465937560052692e-05
4.475114393376568e-05
4.482974791351344e-05
4.489569190499078e-05
4.494930535124257e-05
4.499088908231377e-05
4.502082905559772e-05
4.503939057111409e-05
4.504674078761042e-05
4.504321592282717e-05
4.502891276453167e-05
4.500408170761191e-05
4.496885065569488e-05
4.49233400999228e-05
4.486779267181414e-05
4.480224071244002e-05
4.472675270190107e-05
4.464147901522582e-05
4.454641791349674e-05
4.444178323767758e-05
4.432750643684461e-05
4.420357505553649e-05
4.407006121297992e-05
4.392692917639175e-05
4.37741253538664e-05
4.361170297796273e-05
4.343957211898528e-05
4.325773831848162e-05
4.30661485637997e-05
4.286478470139222e-05
4.265051524108785e-05
4.242362255673993e-05
4.218431503821514e-05
4.193235854345984e-05
4.166768928577866e-05
4.139004481592971e-05
4.109939113601698e-05
4.079579811329585e-05
4.04792763651444e-05
4.014956767675291e-05
3.980699304547322e-05
3.945141203727204e-05
3.908418632779137e-05
3.870479737525598e-05
3.831637529003082e-05
3.791818064323045e-05
3.75131670272877e-05
3.71032037962384e-05
3.669070439157991e-05
3.627718481443922e-05
3.586552188672505e-05
3.545761971730349e-05
3.505617488246575e-05
3.466267174966038e-05
3.428118735431776e-05
3.391880867882998e-05
3.357885783688856e-05
3.327452610686167e-05
3.301125951876574e-05
3.281229590862865e-05
3.269983990113846e-05
3.617240361385788e-05
3.62030502885855e-05
3.638192388703782e-05
3.665644109237352e-05
3.700682989042231e-05
3.742048367592325e-05
3.786864868778364e-05
3.835363170664879e-05
3.886053234808715e-05
3.938357923753434e-05
3.991606720637299e-05
4.045504040013273e-05
4.099506789576653e-05
4.15323049760998e-05
4.206297192645797e-05
4.258271872023752e-05
4.308985851679691e-05
4.3580713420902e-05
4.40550894472404e-05
4.451155199041745e-05
4.494986747468778e-05
4.53692395385286e-05
4.576888624075212e-05
4.614805806515066e-05
4.65065392405525e-05
4.684399951386372e-05
4.716044802013589e-05
4.745592744108844e-05
4.773084582013762e-05
4.79856759230615e-05
4.822182948190415e-05
4.843965925947272e-05
4.863751671721164e-05
4.881626444577466e-05
4.897763121917667e-05
4.912175852570272e-05
4.924931102284045e-05
4.936091637540603e-05
4.945715878947945e-05
4.953866527727231e-05
4.960580311390188e-05
4.965916643414409e-05
4.969918083714975e-05
4.97262555274076e-05
4.974086248869492e-05
4.974335440542742e-05
4.973401001447533e-05
4.97132349000355e-05
4.968121068696599e-05
4.963825748577696e-05
4.958457392170863e-05
4.952034130847883e-05
4.944586120897708e-05
4.936120852853088e-05
4.926650624183607e-05
4.91619325619256e-05
4.904754628934432e-05
4.89235629627908e-05
4.87898826905471e-05
4.86465164639705e-05
4.849351151119287e-05
4.833082289166631e-05
4.815837495258095e-05
4.797618289540868e-05
4.778411568966178e-05
4.758212706588734e-05
4.73700896283433e-05
4.714708072790503e-05
4.691021170962579e-05
4.666027046097792e-05
4.639721747121153e-05
4.612072253193323e-05
4.583065810667679e-05
4.552671125845813e-05
4.520881446470432e-05
4.487701807957856e-05
4.453132756627568e-05
4.417149154203894e-05
4.379789240659455e-05
4.3410475035328e-05
4.301056914976565e-05
4.259698953728578e-05
4.217469313420084e-05
4.17416310024339e-05
4.130173474803167e-05
4.08565305177015e-05
4.040895049469528e-05
3.996049260717172e-05
3.95144498084484e-05
3.907283091410721e-05
3.863866509637503e-05
3.821364466322374e-05
3.780236990959847e-05
3.741272089381438e-05
3.704876598468385e-05
3.672518887182347e-05
3.644876273715305e-05
3.624519094349379e-05
3.613972412075367e-05
3.973586631012278e-05
3.9795401060156e-05
4.00183543740681e-05
4.034766787154504e-05
4.075889136291887e-05
4.12393793786602e-05
4.175716016872492e-05
4.231411832508394e-05
4.289252658417754e-05
4.348610847255597e-05
4.408712775516955e-05
4.469206723259305e-05
4.529502055568723e-05
4.589163739655761e-05
4.647785834635939e-05
4.704908712001157e-05
4.760361224468467e-05
4.813764230227575e-05
4.865111726603914e-05
4.914267010103044e-05
4.961221515337155e-05
5.005909058776085e-05
5.048266065257201e-05
5.088232105172633e-05
5.125802175587232e-05
5.160959000358257e-05
5.193721261751513e-05
5.224111054487941e-05
5.252192388765399e-05
5.27805621457495e-05
5.301858576441057e-05
5.323513407807854e-05
5.34296475304712e-05
5.360366410744672e-05
5.375855414159042e-05
5.389468119668181e-05
5.401286530856429e-05
5.411380876359711e-05
5.419826294919718e-05
5.426691748091608e-05
5.432029919027093e-05
5.435908970500624e-05
5.438381527951552e-05
5.439498882686848e-05
5.43931648931716e-05
5.437878532017372e-05
5.435223273459678e-05
5.4313980106779e-05
5.426429123801057e-05
5.420355073779978e-05
5.413202341387779e-05
5.404994626640604e-05
5.395766908641594e-05
5.385530552078675e-05
5.374302184767356e-05
5.36210215920098e-05
5.34894237386803e-05
5.334838089428357e-05
5.319779256691474e-05
5.303767088852103e-05
5.286802538318666e-05
5.268878529986659e-05
5.249983633746239e-05
5.230113928716469e-05
5.209250490037096e-05
5.187382575893253e-05
5.164510376203369e-05
5.14032940493665e-05
5.114761472959181e-05
5.087838275817494e-05
5.059538934318154e-05
5.029821598071015e-05
4.998667176354544e-05
4.966039075572924e-05
4.93192713825397e-05
4.896334373220492e-05
4.859261243773775e-05
4.820683553926103e-05
4.780642973639156e-05
4.739138369285722e-05
4.696300819986325e-05
4.651978542818466e-05
4.606783911160119e-05
4.560429534407712e-05
4.51337865429067e-05
4.465762750983834e-05
4.417917749300045e-05
4.36999659492153e-05
4.322365263713431e-05
4.275236678271247e-05
4.228945268162993e-05
4.183682496277326e-05
4.139961107095843e-05
4.098645523600696e-05
4.060224468128358e-05
4.02631483785267e-05
3.997732859986786e-05
3.977276017812368e-05
3.967781214918699e-05
4.340316867044367e-05
4.349435821445049e-05
4.376297337531884e-05
4.414813217665435e-05
4.462028686753635e-05
4.516675241631103e-05
4.57526469031591e-05
4.637905007311983e-05
4.702558040924262e-05
4.768523850797256e-05
4.834972511745963e-05
4.901483865813114e-05
4.967432152824579e-05
5.032344435508552e-05
5.095798485154371e-05
5.15732292722253e-05
5.216752194251669e-05
5.273707977832925e-05
5.328202203202836e-05
5.380112661499797e-05
5.429449817963285e-05
5.476166141839928e-05
5.520216873773559e-05
5.561559832512076e-05
5.600208638361994e-05
5.636163736920511e-05
5.669462913642129e-05
5.700148116053881e-05
5.728312725556568e-05
5.754105284314527e-05
5.777596210465919e-05
5.798685428630702e-05
5.817433122781273e-05
5.834008913463032e-05
5.848528679413878e-05
5.861053428498738e-05
5.871676103163215e-05
5.880477474899815e-05
5.887546202993249e-05
5.892959299907579e-05
5.896783752689418e-05
5.899096382450019e-05
5.899959877686045e-05