/*--------------------------------*- C++ -*----------------------------------*\
| =========                 |                                                 |
| \\      /  F ield         | OpenFOAM: The Open Source CFD Toolbox           |
|  \\    /   O peration     | Version:  2.3.x                                 |
|   \\  /    A nd           | Web:      www.OpenFOAM.org                      |
|    \\/     M anipulation  |                                                 |
\*---------------------------------------------------------------------------*/
FoamFile
{
    version     2.0;
    format      ascii;
    class       volScalarField;
    location    "0";
    object      p;
}
// * * * * * * * * * * * * * * * * * * * * * * * * * * * * * * * * * * * * * //

dimensions      [ 0 2 -2 0 0 0 0 ];

internalField   nonuniform List<scalar> 
14751
(4.7543088330271772e+01
2.3782600402832038e+01
2.3788833618164059e+01
2.3795345306396481e+01
2.3802198410034180e+01
2.3809286117553722e+01
2.3816509246826179e+01
2.3823860168457038e+01
2.3831310272216800e+01
2.3838703155517582e+01
2.3845954895019538e+01
2.3853164672851559e+01
2.3859764099121101e+01
2.3866292953491222e+01
2.3872522354125980e+01
2.3878524780273441e+01
2.3884248733520501e+01
2.3889419555664059e+01
2.3894741058349599e+01
2.3899753570556641e+01
2.3903739929199219e+01
2.3907417297363281e+01
2.3910842895507820e+01
2.3913776397705082e+01
2.3916282653808601e+01
2.3918388366699219e+01
2.3920185089111321e+01
2.3921665191650401e+01
2.3922800064086921e+01
2.3923639297485359e+01
2.3924156188964840e+01
2.3924373626708981e+01
2.3924247741699219e+01
2.3923816680908200e+01
2.3923089981079102e+01
2.3922149658203121e+01
2.3920997619628899e+01
2.3919536590576179e+01
2.3917881011962901e+01
2.3916021347045898e+01
2.3913894653320320e+01
2.3911556243896481e+01
2.3909023284912099e+01
2.3906036376953121e+01
2.3902828216552741e+01
2.3899732589721680e+01
2.3896530151367180e+01
2.3893083572387699e+01
2.3889440536499020e+01
2.3885704040527340e+01
2.3881822586059581e+01
2.3877784729003899e+01
2.3873620986938480e+01
2.3869377136230462e+01
2.3865036010742180e+01
2.3860134124755859e+01
2.3855106353759759e+01
2.3850433349609379e+01
2.3845699310302741e+01
2.3840955734252919e+01
2.3836187362670898e+01
2.3831405639648441e+01
2.3826578140258778e+01
2.3821689605712901e+01
2.3816902160644538e+01
2.3812232971191399e+01
2.3807540893554680e+01
2.3802385330200199e+01
2.3797412872314460e+01
2.3793029785156239e+01
2.3788587570190419e+01
2.3784370422363281e+01
2.3780376434326179e+01
2.3776412963867180e+01
2.3772666931152340e+01
2.3769107818603519e+01
2.3765758514404300e+01
2.3762645721435540e+01
2.3759639739990241e+01
2.3756881713867180e+01
2.3754230499267582e+01
2.3751834869384759e+01
2.3749965667724599e+01
2.3748409271240241e+01
2.3747135162353519e+01
2.3746206283569339e+01
2.3745605468750000e+01
2.3745300292968761e+01
2.3745452880859379e+01
2.3745939254760739e+01
2.3746902465820320e+01
2.3748332977294918e+01
2.3750200271606442e+01
2.3752517700195320e+01
2.3755397796630859e+01
2.3758749008178722e+01
2.3762691497802741e+01
2.3767078399658200e+01
4.7543088329210192e+01
4.7543015365229941e+01
2.3782600402832038e+01
2.3788833618164059e+01
2.3795345306396481e+01
2.3802198410034180e+01
2.3809286117553722e+01
2.3816509246826179e+01
2.3823860168457038e+01
2.3831310272216800e+01
2.3838703155517582e+01
2.3845954895019538e+01
2.3853164672851559e+01
2.3859764099121101e+01
2.3866292953491222e+01
2.3872522354125980e+01
2.3878524780273441e+01
2.3884248733520501e+01
2.3889419555664059e+01
2.3894741058349599e+01
2.3899753570556641e+01
2.3903739929199219e+01
2.3907417297363281e+01
2.3910842895507820e+01
2.3913776397705082e+01
2.3916282653808601e+01
2.3918388366699219e+01
2.3920185089111321e+01
2.3921665191650401e+01
2.3922800064086921e+01
2.3923639297485359e+01
2.3924156188964840e+01
2.3924373626708981e+01
2.3924247741699219e+01
2.3923816680908200e+01
2.3923089981079102e+01
2.3922149658203121e+01
2.3920997619628899e+01
2.3919536590576179e+01
2.3917881011962901e+01
2.3916021347045898e+01
2.3913894653320320e+01
2.3911556243896481e+01
2.3909023284912099e+01
2.3906036376953121e+01
2.3902828216552741e+01
2.3899732589721680e+01
2.3896530151367180e+01
2.3893083572387699e+01
2.3889440536499020e+01
2.3885704040527340e+01
2.3881822586059581e+01
2.3877784729003899e+01
2.3873620986938480e+01
2.3869377136230462e+01
2.3865036010742180e+01
2.3860134124755859e+01
2.3855106353759759e+01
2.3850433349609379e+01
2.3845699310302741e+01
2.3840955734252919e+01
2.3836187362670898e+01
2.3831405639648441e+01
2.3826578140258778e+01
2.3821689605712901e+01
2.3816902160644538e+01
2.3812232971191399e+01
2.3807540893554680e+01
2.3802385330200199e+01
2.3797412872314460e+01
2.3793029785156239e+01
2.3788587570190419e+01
2.3784370422363281e+01
2.3780376434326179e+01
2.3776412963867180e+01
2.3772666931152340e+01
2.3769107818603519e+01
2.3765758514404300e+01
2.3762645721435540e+01
2.3759639739990241e+01
2.3756881713867180e+01
2.3754230499267582e+01
2.3751834869384759e+01
2.3749965667724599e+01
2.3748409271240241e+01
2.3747135162353519e+01
2.3746206283569339e+01
2.3745605468750000e+01
2.3745300292968761e+01
2.3745452880859379e+01
2.3745939254760739e+01
2.3746902465820320e+01
2.3748332977294918e+01
2.3750200271606442e+01
2.3752517700195320e+01
2.3755397796630859e+01
2.3758749008178722e+01
2.3762691497802741e+01
2.3767078399658200e+01
4.7543015352605998e+01
4.7542939151897421e+01
4.7565185546875000e+01
4.7577651977539062e+01
4.7590675354003899e+01
4.7604381561279297e+01
4.7618560791015618e+01
4.7633010864257820e+01
4.7647716522216797e+01
4.7662612915039062e+01
4.7677394866943359e+01
4.7691894531250000e+01
4.7706314086914062e+01
4.7719505310058601e+01
4.7732559204101562e+01
4.7745014190673821e+01
4.7757011413574219e+01
4.7768455505371101e+01
4.7778793334960938e+01
4.7789432525634759e+01
4.7799453735351562e+01
4.7807426452636719e+01
4.7814777374267578e+01
4.7821628570556641e+01
4.7827503204345703e+01
4.7832511901855462e+01
4.7836723327636719e+01
4.7840316772460938e+01
4.7843276977539062e+01
4.7845542907714837e+01
4.7847221374511719e+01
4.7848255157470703e+01
4.7848690032958977e+01
4.7848442077636719e+01
4.7847572326660163e+01
4.7846118927001960e+01
4.7844238281250000e+01
4.7841930389404297e+01
4.7839012145996101e+01
4.7835697174072259e+01
4.7831977844238281e+01
4.7827724456787102e+01
4.7823051452636719e+01
4.7817985534667962e+01
4.7812004089355462e+01
4.7805587768554680e+01
4.7799400329589837e+01
4.7792995452880859e+01
4.7786106109619141e+01
4.7778820037841797e+01
4.7771343231201179e+01
4.7763580322265618e+01
4.7755500793457038e+01
4.7747173309326179e+01
4.7738685607910163e+01
4.7730003356933601e+01
4.7720195770263679e+01
4.7710144042968757e+01
4.7700794219970703e+01
4.7691322326660163e+01
4.7681838989257820e+01
4.7672302246093757e+01
4.7662742614746101e+01
4.7653083801269538e+01
4.7643302917480462e+01
4.7633735656738281e+01
4.7624393463134759e+01
4.7615016937255859e+01
4.7604705810546882e+01
4.7594764709472663e+01
4.7585998535156243e+01
4.7577117919921882e+01
4.7568679809570320e+01
4.7560699462890618e+01
4.7552772521972663e+01
4.7545280456542962e+01
4.7538169860839837e+01
4.7531475067138679e+01
4.7525249481201179e+01
4.7519245147705078e+01
4.7513729095458977e+01
4.7508426666259759e+01
4.7503643035888679e+01
4.7499908447265618e+01
4.7496799468994141e+01
4.7494255065917962e+01
4.7492401123046882e+01
4.7491195678710938e+01
4.7490592956542962e+01
4.7490890502929680e+01
4.7491867065429680e+01
4.7493793487548821e+01
4.7496658325195320e+01
4.7500392913818359e+01
4.7505016326904297e+01
4.7510768890380859e+01
4.7517475128173821e+01
4.7525360107421882e+01
4.7534137725830078e+01
4.7542939110402244e+01
4.7542791370737980e+01
4.7565120697021477e+01
4.7577579498291023e+01
4.7590602874755859e+01
4.7604320526123040e+01
4.7618507385253899e+01
4.7632957458496101e+01
4.7647655487060540e+01
4.7662532806396477e+01
4.7677299499511719e+01
4.7691825866699219e+01
4.7706260681152337e+01
4.7719444274902337e+01
4.7732486724853523e+01
4.7744934082031243e+01
4.7756919860839837e+01
4.7768356323242180e+01
4.7778686523437500e+01
4.7789005279541023e+01
4.7798992156982422e+01
4.7806964874267578e+01
4.7814308166503899e+01
4.7821147918701179e+01
4.7827026367187500e+01
4.7832023620605462e+01
4.7836235046386719e+01
4.7839820861816399e+01
4.7842769622802741e+01
4.7845035552978523e+01
4.7846717834472663e+01
4.7847782135009759e+01
4.7848205566406243e+01
4.7847919464111321e+01
4.7847045898437500e+01
4.7845584869384759e+01
4.7843696594238281e+01
4.7841381072998040e+01
4.7838462829589837e+01
4.7835140228271477e+01
4.7831348419189460e+01
4.7827033996582038e+01
4.7822360992431641e+01
4.7817283630371101e+01
4.7811302185058601e+01
4.7804893493652337e+01
4.7798702239990241e+01
4.7792293548583977e+01
4.7785408020019538e+01
4.7778121948242180e+01
4.7770637512207038e+01
4.7762866973876960e+01
4.7754783630371101e+01
4.7746456146240241e+01
4.7737957000732422e+01
4.7729267120361321e+01
4.7719459533691399e+01
4.7709411621093757e+01
4.7700069427490241e+01
4.7690608978271477e+01
4.7681190490722663e+01
4.7671726226806641e+01
4.7662174224853523e+01
4.7652523040771477e+01
4.7642761230468757e+01
4.7633201599121101e+01
4.7623870849609382e+01
4.7614509582519538e+01
4.7605117797851562e+01
4.7595188140869141e+01
4.7585533142089837e+01
4.7576683044433601e+01
4.7568252563476562e+01
4.7560272216796882e+01
4.7552375793457038e+01
4.7544895172119141e+01
4.7537799835205078e+01
4.7531120300292962e+01
4.7524906158447259e+01
4.7518920898437500e+01
4.7513427734375000e+01
4.7508144378662102e+01
4.7503574371337898e+01
4.7499847412109382e+01
4.7496742248535163e+01
4.7494205474853523e+01
4.7492355346679680e+01
4.7491157531738281e+01
4.7490554809570320e+01
4.7490829467773438e+01
4.7491786956787102e+01
4.7493721008300781e+01
4.7496589660644538e+01
4.7500328063964837e+01
4.7504955291748040e+01
4.7510696411132820e+01
4.7517387390136719e+01
4.7525276184082038e+01
4.7534065246582038e+01
4.7542791215880762e+01
4.7542563724045920e+01
4.7564971923828118e+01
4.7577419281005859e+01
4.7590465545654297e+01
4.7604202270507820e+01
4.7618358612060540e+01
4.7632789611816399e+01
4.7647468566894538e+01
4.7662361145019538e+01
4.7677150726318359e+01
4.7691337585449219e+01
4.7705696105957038e+01
4.7718894958496101e+01
4.7731964111328118e+01
4.7744392395019538e+01
4.7756340026855462e+01
4.7767711639404297e+01
4.7778018951416023e+01
4.7788597106933601e+01
4.7798557281494141e+01
4.7806533813476562e+01
4.7813873291015618e+01
4.7820693969726562e+01
4.7826564788818359e+01
4.7831558227539062e+01
4.7835769653320320e+01
4.7839351654052741e+01
4.7842292785644538e+01
4.7844554901123040e+01
4.7846122741699219e+01
4.7847076416015618e+01
4.7847488403320320e+01
4.7847198486328118e+01
4.7846317291259759e+01
4.7844856262207038e+01
4.7842956542968757e+01
4.7840633392333977e+01
4.7837718963623040e+01
4.7834388732910163e+01
4.7830654144287102e+01
4.7826408386230462e+01
4.7821731567382820e+01
4.7816658020019538e+01
4.7810676574707038e+01
4.7804264068603523e+01
4.7798072814941399e+01
4.7791660308837898e+01
4.7784778594970703e+01
4.7777496337890618e+01
4.7770004272460938e+01
4.7762233734130859e+01
4.7754150390625000e+01
4.7745822906494141e+01
4.7737323760986321e+01
4.7728633880615241e+01
4.7718833923339837e+01
4.7708793640136719e+01
4.7699455261230462e+01
4.7690002441406243e+01
4.7680522918701179e+01
4.7671001434326179e+01
4.7661460876464837e+01
4.7651824951171882e+01
4.7642089843750000e+01
4.7632545471191399e+01
4.7623218536376960e+01
4.7613876342773438e+01
4.7604515075683601e+01
4.7594604492187500e+01
4.7585041046142578e+01
4.7576293945312500e+01
4.7567874908447259e+01
4.7559898376464837e+01
4.7552017211914062e+01
4.7544551849365241e+01
4.7537467956542962e+01
4.7530799865722663e+01
4.7524589538574219e+01
4.7518623352050781e+01
4.7513145446777337e+01
4.7507869720458977e+01
4.7503124237060540e+01
4.7499416351318359e+01
4.7496330261230462e+01
4.7493816375732422e+01
4.7491981506347663e+01
4.7490753173828118e+01
4.7490131378173821e+01
4.7490440368652337e+01
4.7491661071777337e+01
4.7493568420410163e+01
4.7496410369873040e+01
4.7500167846679680e+01
4.7504810333251960e+01
4.7510570526123040e+01
4.7517242431640618e+01
4.7525112152099602e+01
4.7533912658691399e+01
4.7542563361024683e+01
4.7542263639264633e+01
4.7564743041992180e+01
4.7577171325683601e+01
4.7590244293212898e+01
4.7603984832763679e+01
4.7618091583251960e+01
4.7632186889648438e+01
4.7646923065185540e+01
4.7661746978759759e+01
4.7676433563232422e+01
4.7690933227539062e+01
4.7705322265625000e+01
4.7718498229980462e+01
4.7731544494628899e+01
4.7743957519531243e+01
4.7755882263183601e+01
4.7767215728759759e+01
4.7777511596679680e+01
4.7788070678710938e+01
4.7797996520996101e+01
4.7805973052978523e+01
4.7813304901123040e+01
4.7820106506347663e+01
4.7825973510742180e+01
4.7830959320068359e+01
4.7835166931152337e+01
4.7838745117187500e+01
4.7841678619384759e+01
4.7843936920166023e+01
4.7845493316650398e+01
4.7846443176269538e+01
4.7846847534179680e+01
4.7846549987792962e+01
4.7845554351806641e+01
4.7843982696533203e+01
4.7842079162597663e+01
4.7839744567871101e+01
4.7836830139160163e+01
4.7833488464355462e+01
4.7829750061035163e+01
4.7825504302978523e+01
4.7820827484130859e+01
4.7815750122070320e+01
4.7809768676757820e+01
4.7803359985351562e+01
4.7797172546386719e+01
4.7790748596191399e+01
4.7783874511718757e+01
4.7776596069335938e+01
4.7769104003906243e+01
4.7761329650878899e+01
4.7753253936767578e+01
4.7744926452636719e+01
4.7736434936523438e+01
4.7727752685546882e+01
4.7717956542968757e+01
4.7707931518554680e+01
4.7698608398437500e+01
4.7689170837402337e+01
4.7679702758789062e+01
4.7670200347900398e+01
4.7660678863525398e+01
4.7651054382324219e+01
4.7641349792480462e+01
4.7631824493408203e+01
4.7622589111328118e+01
4.7613346099853523e+01
4.7604007720947259e+01
4.7594108581542962e+01
4.7584552764892578e+01
4.7575828552246101e+01
4.7567420959472663e+01
4.7559444427490241e+01
4.7551586151123040e+01
4.7544132232666023e+01
4.7537055969238281e+01
4.7530399322509759e+01
4.7524188995361321e+01
4.7518238067626960e+01
4.7512779235839837e+01
4.7507511138916023e+01
4.7502777099609382e+01
4.7499084472656243e+01
4.7496002197265618e+01
4.7493499755859382e+01
4.7491676330566399e+01
4.7490459442138679e+01
4.7489852905273438e+01
4.7490108489990241e+01
4.7491065979003899e+01
4.7493045806884759e+01
4.7495903015136719e+01
4.7499603271484382e+01
4.7504558563232422e+01
4.7510356903076179e+01
4.7517024993896477e+01
4.7524864196777337e+01
4.7533676147460938e+01
4.7542262994355056e+01
4.7541913750523733e+01
4.7564086914062500e+01
4.7576580047607422e+01
4.7589660644531243e+01
4.7603286743164062e+01
4.7617336273193359e+01
4.7631816864013679e+01
4.7646537780761719e+01
4.7661277770996101e+01
4.7675994873046882e+01
4.7690540313720703e+01
4.7704902648925781e+01
4.7717987060546882e+01
4.7730941772460938e+01
4.7743331909179680e+01
4.7755233764648438e+01
4.7766609191894538e+01
4.7777458190917962e+01
4.7787998199462898e+01
4.7797420501708977e+01
4.7805397033691399e+01
4.7812721252441399e+01
4.7819503784179680e+01
4.7825267791748040e+01
4.7830146789550781e+01
4.7834354400634759e+01
4.7837928771972663e+01
4.7840850830078118e+01
4.7843101501464837e+01
4.7844757080078118e+01
4.7845809936523438e+01
4.7846202850341797e+01
4.7845901489257820e+01
4.7844905853271477e+01
4.7843330383300781e+01
4.7841320037841797e+01
4.7838874816894538e+01
4.7835964202880859e+01
4.7832618713378899e+01
4.7828872680664062e+01
4.7824626922607422e+01
4.7819950103759759e+01
4.7814876556396477e+01
4.7808895111083977e+01
4.7802494049072259e+01
4.7796306610107422e+01
4.7789875030517578e+01
4.7783004760742180e+01
4.7775741577148438e+01
4.7768245697021477e+01
4.7760482788085938e+01
4.7752414703369141e+01
4.7744098663330078e+01
4.7735610961914062e+01
4.7726936340332038e+01
4.7717159271240241e+01
4.7707145690917962e+01
4.7697841644287102e+01
4.7688426971435540e+01
4.7678974151611321e+01
4.7669486999511719e+01
4.7659984588623040e+01
4.7650375366210938e+01
4.7640766143798821e+01
4.7631324768066399e+01
4.7622097015380859e+01
4.7612865447998040e+01
4.7603553771972663e+01
4.7593666076660163e+01
4.7584022521972663e+01
4.7575241088867180e+01
4.7566844940185540e+01
4.7558868408203118e+01
4.7551033020019538e+01
4.7543586730957038e+01
4.7536579132080078e+01
4.7529991149902337e+01
4.7523780822753899e+01
4.7517845153808601e+01
4.7512397766113281e+01
4.7507350921630859e+01
4.7502628326416023e+01
4.7498664855957038e+01
4.7495525360107422e+01
4.7493034362792962e+01
4.7491218566894538e+01
4.7490055084228523e+01
4.7489513397216797e+01
4.7489772796630859e+01
4.7490684509277337e+01
4.7492622375488281e+01
4.7495536804199219e+01
4.7499248504638679e+01
4.7503833770751960e+01
4.7509662628173821e+01
4.7516433715820320e+01
4.7524269104003899e+01
4.7533008575439460e+01
4.7541912809234603e+01
4.7541510608220229e+01
4.7563682556152337e+01
4.7576175689697259e+01
4.7589256286621101e+01
4.7602863311767578e+01
4.7616943359375000e+01
4.7631416320800781e+01
4.7646060943603523e+01
4.7660835266113281e+01
4.7675598144531243e+01
4.7690055847167962e+01
4.7704326629638679e+01
4.7717460632324219e+01
4.7730468750000000e+01
4.7742851257324219e+01
4.7754734039306641e+01
4.7766078948974602e+01
4.7777404785156243e+01
4.7787929534912102e+01
4.7796848297119141e+01
4.7804832458496101e+01
4.7812152862548821e+01
4.7818916320800781e+01
4.7824676513671882e+01
4.7829551696777337e+01
4.7833763122558601e+01
4.7837242126464837e+01
4.7840068817138679e+01
4.7842315673828118e+01
4.7843959808349602e+01
4.7845008850097663e+01
4.7845397949218757e+01
4.7845092773437500e+01
4.7844200134277337e+01
4.7842735290527337e+01
4.7840721130371101e+01
4.7838176727294922e+01
4.7835182189941399e+01
4.7831836700439460e+01
4.7828083038330078e+01
4.7823844909667962e+01
4.7819168090820320e+01
4.7814098358154297e+01
4.7808120727539062e+01
4.7801727294921882e+01
4.7795536041259759e+01
4.7789100646972663e+01
4.7782234191894538e+01
4.7774986267089837e+01
4.7767498016357422e+01
4.7759742736816399e+01
4.7751686096191399e+01
4.7743385314941399e+01
4.7734909057617180e+01
4.7726253509521477e+01
4.7716487884521477e+01
4.7706489562988281e+01
4.7697200775146477e+01
4.7687808990478523e+01
4.7678375244140618e+01
4.7668903350830078e+01
4.7659412384033203e+01
4.7649875640869141e+01
4.7640342712402337e+01
4.7630912780761719e+01
4.7621604919433601e+01
4.7612304687500000e+01
4.7603019714355462e+01
4.7593132019042962e+01
4.7583484649658203e+01
4.7574726104736321e+01
4.7566333770751960e+01
4.7558403015136719e+01
4.7550640106201179e+01
4.7543190002441399e+01
4.7536182403564460e+01
4.7529594421386719e+01
4.7523376464843757e+01
4.7517448425292962e+01
4.7512008666992180e+01
4.7507179260253899e+01
4.7502460479736321e+01
4.7498283386230462e+01
4.7495147705078118e+01
4.7492660522460938e+01
4.7490848541259759e+01
4.7489620208740241e+01
4.7489025115966797e+01
4.7489349365234382e+01
4.7490325927734382e+01
4.7492214202880859e+01
4.7495075225830078e+01
4.7498859405517578e+01
4.7503448486328118e+01
4.7509231567382820e+01
4.7516017913818359e+01
4.7523857116699219e+01
4.7532600402832038e+01
4.7541509317449361e+01
4.7541076604061494e+01
4.7563243865966797e+01
4.7575733184814460e+01
4.7588817596435540e+01
4.7602409362792962e+01
4.7616531372070320e+01
4.7630989074707038e+01
4.7645557403564460e+01
4.7660369873046882e+01
4.7675117492675781e+01
4.7689491271972663e+01
4.7703811645507820e+01
4.7717002868652337e+01
4.7730003356933601e+01
4.7742374420166023e+01
4.7754238128662102e+01
4.7765468597412102e+01
4.7776710510253899e+01
4.7787220001220703e+01
4.7796112060546882e+01
4.7804103851318359e+01
4.7811424255371101e+01
4.7818164825439460e+01
4.7824020385742180e+01
4.7828998565673821e+01
4.7833217620849602e+01
4.7836692810058601e+01
4.7839431762695320e+01
4.7841594696044922e+01
4.7843238830566399e+01
4.7844284057617180e+01
4.7844665527343757e+01
4.7844364166259759e+01
4.7843467712402337e+01
4.7842002868652337e+01
4.7840087890625000e+01
4.7837638854980462e+01
4.7834571838378899e+01
4.7831150054931641e+01
4.7827396392822259e+01
4.7823165893554680e+01
4.7818492889404297e+01
4.7813423156738281e+01
4.7807449340820320e+01
4.7801059722900398e+01
4.7794876098632820e+01
4.7788429260253899e+01
4.7781574249267578e+01
4.7774337768554680e+01
4.7766860961914062e+01
4.7759117126464837e+01
4.7751075744628899e+01
4.7742790222167962e+01
4.7734329223632820e+01
4.7725688934326179e+01
4.7715934753417962e+01
4.7705947875976562e+01
4.7696670532226562e+01
4.7687297821044922e+01
4.7677879333496101e+01
4.7668422698974602e+01
4.7658988952636719e+01
4.7649509429931641e+01
4.7639923095703118e+01
4.7630432128906243e+01
4.7621120452880859e+01
4.7611827850341797e+01
4.7602558135986321e+01
4.7592666625976562e+01
4.7583000183105462e+01
4.7574264526367180e+01
4.7565925598144538e+01
4.7558032989501960e+01
4.7550270080566399e+01
4.7542816162109382e+01
4.7535732269287102e+01
4.7529067993164062e+01
4.7522834777832038e+01
4.7516914367675781e+01
4.7511482238769538e+01
4.7506645202636719e+01
4.7501930236816399e+01
4.7497817993164062e+01
4.7494747161865241e+01
4.7492263793945320e+01
4.7490451812744141e+01
4.7489227294921882e+01
4.7488571166992180e+01
4.7488830566406243e+01
4.7489875793457038e+01
4.7491775512695320e+01
4.7494575500488281e+01
4.7498435974121101e+01
4.7503036499023438e+01
4.7508769989013679e+01
4.7515563964843757e+01
4.7523406982421882e+01
4.7532150268554680e+01
4.7541075021698909e+01
4.7540612089061256e+01
4.7562778472900398e+01
4.7575263977050781e+01
4.7588348388671882e+01
4.7601928710937500e+01
4.7616035461425781e+01
4.7630485534667962e+01
4.7645103454589837e+01
4.7659896850585938e+01
4.7674560546875000e+01
4.7688995361328118e+01
4.7703372955322259e+01
4.7716476440429680e+01
4.7729381561279297e+01
4.7741744995117180e+01
4.7753593444824219e+01
4.7764797210693359e+01
4.7776042938232422e+01
4.7786628723144538e+01
4.7795585632324219e+01
4.7803585052490241e+01
4.7810825347900398e+01
4.7817470550537102e+01
4.7823322296142578e+01
4.7828308105468757e+01
4.7832538604736321e+01
4.7836105346679680e+01
4.7838932037353523e+01
4.7841022491455078e+01
4.7842643737792962e+01
4.7843688964843757e+01
4.7844020843505859e+01
4.7843719482421882e+01
4.7842826843261719e+01
4.7841365814208977e+01
4.7839447021484382e+01
4.7837078094482422e+01
4.7834037780761719e+01
4.7830558776855462e+01
4.7826808929443359e+01
4.7822586059570320e+01
4.7817920684814460e+01
4.7812850952148438e+01
4.7806877136230462e+01
4.7800495147705078e+01
4.7794311523437500e+01
4.7787864685058601e+01
4.7781017303466797e+01
4.7773796081542962e+01
4.7766330718994141e+01
4.7758598327636719e+01
4.7750568389892578e+01
4.7742294311523438e+01
4.7733852386474602e+01
4.7725227355957038e+01
4.7715480804443359e+01
4.7705497741699219e+01
4.7696235656738281e+01
4.7686874389648438e+01
4.7677467346191399e+01
4.7668014526367180e+01
4.7658626556396477e+01
4.7649139404296882e+01
4.7639503479003899e+01
4.7630012512207038e+01
4.7620697021484382e+01
4.7611404418945320e+01
4.7602138519287102e+01
4.7592674255371101e+01
4.7582992553710938e+01
4.7573875427246101e+01
4.7565586090087898e+01
4.7557609558105462e+01
4.7549781799316399e+01
4.7542312622070320e+01
4.7535217285156243e+01
4.7528541564941399e+01
4.7522361755371101e+01
4.7516510009765618e+01
4.7511077880859382e+01
4.7506164550781243e+01
4.7501380920410163e+01
4.7497272491455078e+01
4.7494201660156243e+01
4.7491722106933601e+01
4.7489906311035163e+01
4.7488746643066399e+01
4.7488166809082038e+01
4.7488357543945320e+01
4.7489349365234382e+01
4.7491317749023438e+01
4.7494121551513679e+01
4.7497928619384759e+01
4.7502540588378899e+01
4.7508277893066399e+01
4.7515018463134759e+01
4.7522865295410163e+01
4.7531677246093757e+01
4.7540610234701646e+01
4.7540064641258596e+01
4.7562294006347663e+01
4.7574718475341797e+01
4.7587802886962898e+01
4.7601432800292962e+01
4.7615531921386719e+01
4.7629974365234382e+01
4.7644641876220703e+01
4.7659420013427741e+01
4.7674068450927741e+01
4.7688568115234382e+01
4.7702865600585938e+01
4.7715885162353523e+01
4.7728778839111321e+01
4.7741138458251960e+01
4.7753047943115241e+01
4.7764820098876960e+01
4.7776069641113281e+01
4.7786148071289062e+01
4.7795093536376960e+01
4.7803104400634759e+01
4.7810348510742180e+01
4.7816982269287102e+01
4.7822761535644538e+01
4.7827682495117180e+01
4.7831924438476562e+01
4.7835494995117180e+01
4.7838401794433601e+01
4.7840579986572259e+01
4.7842185974121101e+01
4.7843166351318359e+01
4.7843452453613281e+01
4.7843154907226562e+01
4.7842262268066399e+01
4.7840812683105462e+01
4.7838893890380859e+01
4.7836521148681641e+01
4.7833507537841797e+01
4.7830055236816399e+01
4.7826309204101562e+01
4.7822093963623040e+01
4.7817436218261719e+01
4.7812107086181641e+01
4.7806133270263679e+01
4.7800018310546882e+01
4.7793842315673821e+01
4.7787395477294922e+01
4.7780513763427741e+01
4.7773269653320320e+01
4.7765808105468757e+01
4.7758083343505859e+01
4.7750106811523438e+01
4.7741893768310540e+01
4.7733467102050781e+01
4.7724845886230462e+01
4.7715560913085938e+01
4.7705585479736321e+01
4.7695877075195320e+01
4.7686523437500000e+01
4.7677120208740241e+01
4.7667667388916023e+01
4.7658256530761719e+01
4.7648757934570320e+01
4.7639133453369141e+01
4.7629642486572259e+01
4.7620307922363281e+01
4.7611003875732422e+01
4.7601737976074219e+01
4.7592700958251960e+01
4.7583049774169922e+01
4.7573547363281243e+01
4.7565185546875000e+01
4.7557128906250000e+01
4.7549293518066399e+01
4.7541805267333977e+01
4.7534763336181641e+01
4.7528144836425781e+01
4.7521949768066399e+01
4.7516098022460938e+01
4.7510665893554680e+01
4.7505748748779297e+01
4.7501148223876960e+01
4.7497039794921882e+01
4.7493705749511719e+01
4.7491157531738281e+01
4.7489345550537102e+01
4.7488182067871101e+01
4.7487678527832038e+01
4.7487945556640618e+01
4.7488872528076179e+01
4.7490848541259759e+01
4.7493648529052741e+01
4.7497398376464837e+01
4.7502021789550781e+01
4.7507762908935540e+01
4.7514450073242180e+01
4.7522300720214837e+01
4.7531181335449219e+01
4.7540062333157373e+01
4.7539496848231387e+01
4.7561798095703118e+01
4.7574157714843757e+01
4.7587242126464837e+01
4.7600933074951179e+01
4.7615020751953118e+01
4.7629455566406243e+01
4.7644115447998040e+01
4.7658878326416023e+01
4.7673583984375000e+01
4.7688079833984382e+01
4.7702301025390618e+01
4.7715316772460938e+01
4.7728275299072259e+01
4.7740699768066399e+01
4.7752601623535163e+01
4.7764873504638679e+01
4.7776130676269538e+01
4.7785621643066399e+01
4.7794479370117180e+01
4.7802505493164062e+01
4.7809837341308601e+01
4.7816539764404297e+01
4.7822322845458977e+01
4.7827190399169922e+01
4.7831378936767578e+01
4.7834953308105462e+01
4.7837863922119141e+01
4.7840122222900398e+01
4.7841796875000000e+01
4.7842723846435540e+01
4.7842960357666023e+01
4.7842666625976562e+01
4.7841781616210938e+01
4.7840339660644538e+01
4.7838424682617180e+01
4.7836048126220703e+01
4.7833061218261719e+01
4.7829631805419922e+01
4.7825889587402337e+01
4.7821678161621101e+01
4.7817024230957038e+01
4.7811439514160163e+01
4.7805465698242180e+01
4.7799625396728523e+01
4.7793457031250000e+01
4.7786968231201179e+01
4.7780063629150398e+01
4.7772830963134759e+01
4.7765377044677741e+01
4.7757659912109382e+01
4.7749694824218757e+01
4.7741531372070320e+01
4.7733146667480462e+01
4.7724529266357422e+01
4.7715702056884759e+01
4.7705730438232422e+01
4.7695568084716797e+01
4.7686218261718757e+01
4.7676811218261719e+01
4.7667350769042962e+01
4.7657924652099602e+01
4.7648414611816399e+01
4.7638790130615241e+01
4.7629295349121101e+01
4.7619941711425781e+01
4.7610614776611321e+01
4.7601341247558601e+01
4.7592342376708977e+01
4.7582725524902337e+01
4.7573162078857422e+01
4.7564731597900398e+01
4.7556644439697259e+01
4.7548793792724602e+01
4.7541358947753899e+01
4.7534366607666023e+01
4.7527736663818359e+01
4.7521461486816399e+01
4.7515541076660163e+01
4.7510108947753899e+01
4.7505249023437500e+01
4.7500907897949219e+01
4.7496799468994141e+01
4.7493274688720703e+01
4.7490730285644538e+01
4.7488842010498040e+01
4.7487606048583977e+01
4.7487113952636719e+01
4.7487449645996101e+01
4.7488384246826179e+01
4.7490299224853523e+01
4.7493099212646477e+01
4.7496856689453118e+01
4.7501483917236321e+01
4.7507232666015618e+01
4.7513923645019538e+01
4.7521781921386719e+01
4.7530670166015618e+01
4.7539494426061260e+01
4.7538977209693691e+01
4.7561290740966797e+01
4.7573646545410163e+01
4.7586738586425781e+01
4.7600429534912102e+01
4.7614509582519538e+01
4.7628944396972663e+01
4.7643592834472663e+01
4.7658348083496101e+01
4.7673046112060540e+01
4.7687534332275398e+01
4.7701820373535163e+01
4.7714904785156243e+01
4.7727859497070320e+01
4.7740287780761719e+01
4.7752113342285163e+01
4.7764301300048821e+01
4.7775573730468757e+01
4.7785068511962898e+01
4.7793922424316399e+01
4.7801967620849602e+01
4.7809310913085938e+01
4.7816001892089837e+01
4.7821857452392578e+01
4.7826808929443359e+01
4.7830955505371101e+01
4.7834480285644538e+01
4.7837394714355462e+01
4.7839660644531243e+01
4.7841400146484382e+01
4.7842342376708977e+01
4.7842533111572259e+01
4.7842243194580078e+01
4.7841365814208977e+01
4.7839935302734382e+01
4.7838020324707038e+01
4.7835605621337898e+01
4.7832641601562500e+01
4.7829277038574219e+01
4.7825531005859382e+01
4.7821323394775398e+01
4.7816673278808601e+01
4.7811096191406243e+01
4.7805133819580078e+01
4.7799301147460938e+01
4.7793106079101562e+01
4.7786586761474602e+01
4.7779735565185540e+01
4.7772560119628899e+01
4.7765106201171882e+01
4.7757389068603523e+01
4.7749397277832038e+01
4.7741207122802741e+01
4.7732852935791023e+01
4.7724258422851562e+01
4.7715427398681641e+01
4.7705459594726562e+01
4.7695297241210938e+01
4.7685943603515618e+01
4.7676528930664062e+01
4.7667060852050781e+01
4.7657577514648438e+01
4.7648048400878899e+01
4.7638462066650398e+01
4.7628952026367180e+01
4.7619571685791023e+01
4.7610225677490241e+01
4.7600936889648438e+01
4.7591976165771477e+01
4.7582336425781243e+01
4.7572711944580078e+01
4.7564266204833977e+01
4.7556152343750000e+01
4.7548355102539062e+01
4.7540966033935540e+01
4.7533897399902337e+01
4.7527183532714837e+01
4.7520893096923821e+01
4.7514968872070320e+01