/*--------------------------------*- C++ -*----------------------------------*\
| =========                 |                                                 |
| \\      /  F ield         | OpenFOAM: The Open Source CFD Toolbox           |
|  \\    /   O peration     | Version:  v1812                                 |
|   \\  /    A nd           | Web:      www.OpenFOAM.com                      |
|    \\/     M anipulation  |                                                 |
\*---------------------------------------------------------------------------*/
FoamFile
{
    version     2.0;
    format      ascii;
    class       volScalarField;
    location    "0";
    object      surfaceFrictionRef;
}
// * * * * * * * * * * * * * * * * * * * * * * * * * * * * * * * * * * * * * //

dimensions      [0 0 0 0 0 0 0];


internalField   uniform 0;

boundaryField
{
    bottomWall
    {
        type            calculated;
        value           nonuniform List<scalar> 
99
(
7.7265476365549128e-04
7.3319767658469169e-04
-1.1981782311773961e-03
-2.5263717097063010e-03
-1.8475313862362981e-03
-1.4314564239800347e-03
-1.0848518268530569e-03
-9.2170251069443492e-04
-8.6290948020299166e-04
-8.0113304465019661e-04
-1.0847680891875619e-03
-1.4786901694172076e-03
-1.8206630156486392e-03
-1.9568337721099049e-03
-2.1870957031246770e-03
-2.1310109382124847e-03
-2.0779044493643060e-03
-1.8454344211952642e-03
-1.6580334844537390e-03
-1.3816868713017740e-03
-1.3460339595634857e-03
-1.9679682027078254e-03
-2.8448420578296029e-03
-3.5183285032796248e-03
-4.1112211797707330e-03
-4.4375960175306360e-03
-4.6423902477194853e-03
-4.6953730219434948e-03
-4.8099718787840895e-03
-4.8085309028203993e-03
-4.7822791659163123e-03
-4.7389378082720061e-03
-4.6767152109723192e-03
-4.6189446410624833e-03
-4.5003507553601487e-03
-4.3701823933116014e-03
-4.1791245054519505e-03
-3.8570769011629434e-03
-3.4855932301292567e-03
-3.3840419143260749e-03
-3.1732619171489021e-03
-2.9701612239652793e-03
-2.7737312322625028e-03
-2.5966236318899945e-03
-2.3992983751934286e-03
-2.0816718467238132e-03
-1.7939447820358248e-03
-1.4191416401462009e-03
-1.1931204014885275e-03
-1.0521629282535250e-03
-8.3380863102582394e-04
-8.6505128050705241e-04
-7.9605758396077446e-04
-5.5639636293075795e-04
-4.7171301592778580e-04
-3.1695665671865913e-04
-1.0529341650566098e-04
1.6671028304918119e-06
1.8016683577291707e-04
3.5421982211384186e-04
5.5717129094641417e-04
6.8858285734453724e-04
6.1814662188892640e-04
6.3622092393544384e-04
6.8543103927092518e-04
7.2093168519259923e-04
7.4032686061757766e-04
7.6789139157996760e-04
7.6741593291211412e-04
7.6716861597378038e-04
7.8932897360285605e-04
7.3036062888512355e-04
7.4475702732396956e-04
5.7513540960791589e-04
4.8511765287327901e-04
2.9060729170133503e-04
7.5509089505891629e-05
-3.1241621833542790e-04
-4.4188698615977971e-04
-3.9748014213493367e-04
-1.1918589741080244e-04
2.0540782653195741e-04
7.8729583620081706e-04
1.3581489707247191e-03
2.2390686760128441e-03
3.2113579670900575e-03
4.4428163471278799e-03
5.5930060281072858e-03
6.9706237369785455e-03
8.5514434980890341e-03
1.0627443593445845e-02
1.4276961722317402e-02
2.0353035487586928e-02
2.7509915634161632e-02
3.9205503168974677e-02
3.7553965933304304e-02
1.8471539861753029e-02
5.4370769682211429e-03
1.1440353055466952e-03
)
;
    }
    defaultFaces
    {
        type            symmetry;
    }
    inlet
    {
        type            cyclic;
    }
    outlet
    {
        type            cyclic;
    }
    topWall
    {
        type            calculated;
        value           uniform 0;
    }
}


// ************************************************************************* //
