/*--------------------------------*- C++ -*----------------------------------*\
| =========                 |                                                 |
| \\      /  F ield         | OpenFOAM: The Open Source CFD Toolbox           |
|  \\    /   O peration     | Version:  v1812                                 |
|   \\  /    A nd           | Web:      www.OpenFOAM.com                      |
|    \\/     M anipulation  |                                                 |
\*---------------------------------------------------------------------------*/
FoamFile
{
    version     2.0;
    format      ascii;
    class       volScalarField;
    location    "0";
    object      surfacePressureRef;
}
// * * * * * * * * * * * * * * * * * * * * * * * * * * * * * * * * * * * * * //

dimensions      [0 0 0 0 0 0 0];


internalField   uniform 0;

boundaryField
{
    bottomWall
    {
        type            calculated;
        value           nonuniform List<scalar> 
99
(
3.4004717868477030e-02
1.1665262136602195e-01
2.1072541093497676e-01
2.9224395204757059e-01
3.5055893854894293e-01
3.9717628507376190e-01
4.2278049429131670e-01
4.4042923202466966e-01
4.4977137003708378e-01
4.5438475485500618e-01
4.5803388468095818e-01
4.6119798095758568e-01
4.6443401031083908e-01
4.6768996271166685e-01
4.7314811707892090e-01
4.7880242214542790e-01
4.8599481680424361e-01
4.9118975590906899e-01
4.9670015151473024e-01
5.0252121846804698e-01
5.0566425677796190e-01
5.0643545128775713e-01
5.1419207628329389e-01
5.2666990132874503e-01
5.4358309629961354e-01
5.6314208692239021e-01
5.8569132470773866e-01
6.1001351450126862e-01
6.3466390070373535e-01
6.5984212251289875e-01
6.8419813158034515e-01
7.0770389682229506e-01
7.3093608338543703e-01
7.5336809143169603e-01
7.7505843484833292e-01
7.9551377533101686e-01
8.1510674829488039e-01
8.3355089148491146e-01
8.5147031908395832e-01
8.6882755695115321e-01
8.8522547862152123e-01
9.0112969559084632e-01
9.1651894455721816e-01
9.3093585707858040e-01
9.4488491466074009e-01
9.5813623528800917e-01
9.7117319804699775e-01
9.8356976949728647e-01
9.9502451675527936e-01
1.0058479309082102e+00
1.0161313017783939e+00
1.0261001546916972e+00
1.0356151993365899e+00
1.0449557403988550e+00
1.0535621052260211e+00
1.0618432734240457e+00
1.0697917469902620e+00
1.0774165522742152e+00
1.0851386045669358e+00
1.0928547892925948e+00
1.0997027796186174e+00
1.1068270740384705e+00
1.1141231131051157e+00
1.1210171321981122e+00
1.1276479842877905e+00
1.1351829073657669e+00
1.1425077611416228e+00
1.1495857847771873e+00
1.1573532244205467e+00
1.1657019750953097e+00
1.1739437119765483e+00
1.1830820081268740e+00
1.1931016954356650e+00
1.2034668270432292e+00
1.2143580754174366e+00
1.2262709843673179e+00
1.2385141531640471e+00
1.2510944241228472e+00
1.2653731176061029e+00
1.2806452187213893e+00
1.2952880962890845e+00
1.3076170873720940e+00
1.3164417602760068e+00
1.3181998540729296e+00
1.3147647783266905e+00
1.3013738812786002e+00
1.2783475897432410e+00
1.2457311151508108e+00
1.2063034978737974e+00
1.1565046069836740e+00
1.0874116568597856e+00
9.7914519256758581e-01
7.9600243669771942e-01
5.1593445131443616e-01
1.3509847342391623e-01
-2.2792170576187232e-01
-2.5426020895628909e-01
-1.2562205725904363e-01
-3.3245872743414395e-02
)
;
    }
    defaultFaces
    {
        type            symmetry;
    }
    inlet
    {
        type            cyclic;
    }
    outlet
    {
        type            cyclic;
    }
    topWall
    {
        type            calculated;
        value           uniform 0;
    }
}


// ************************************************************************* //
