/*--------------------------------*- C++ -*----------------------------------*\
| =========                 |                                                 |
| \\      /  F ield         | OpenFOAM: The Open Source CFD Toolbox           |
|  \\    /   O peration     | Version:  v1812                                 |
|   \\  /    A nd           | Web:      www.OpenFOAM.com                      |
|    \\/     M anipulation  |                                                 |
\*---------------------------------------------------------------------------*/
FoamFile
{
    version     2.0;
    format      ascii;
    class       volVectorField;
    location    "0.00000001";
    object      U;
}
// * * * * * * * * * * * * * * * * * * * * * * * * * * * * * * * * * * * * * //

dimensions      [0 1 -1 0 0 0 0];


internalField   nonuniform List<vector> 
14751
(
(0.001638273327410455 9.377537809004315e-08 2.095009265619975e-19)
(0.00163275301640737 -6.94940782064283e-08 -6.533866669163589e-20)
(0.00163550934243571 1.12066815600051e-07 -1.017651436102854e-20)
(0.001627259795417741 9.834758647851526e-08 5.504475496164016e-21)
(0.001623042258131181 1.663243787114356e-07 -5.196149993620559e-20)
(0.001612575641639095 1.968844085011913e-07 -7.812709846176247e-20)
(0.001601481082455558 2.369667504886158e-07 1.00393829922572e-21)
(0.001587544460589613 2.691055688444825e-07 -1.255354544256418e-19)
(0.001571798495729139 2.980207897765394e-07 7.356103829535297e-20)
(0.001554134905220818 3.184557096892723e-07 -9.624081177621928e-20)
(0.001535058968588731 3.355214065371809e-07 -9.39871170907941e-20)
(0.001514508228400508 3.466954164920087e-07 3.550184887829931e-20)
(0.001492822144077039 3.530791608168512e-07 -1.306923243511472e-19)
(0.001470447690130822 3.528914030209555e-07 -3.926921786558476e-20)
(0.001447514922996177 3.500225018721905e-07 -7.043058277386905e-20)
(0.001424387772921531 3.382664550142726e-07 -6.432633337376707e-20)
(0.001401282686114775 3.26487044299722e-07 -1.513332636280676e-21)
(0.001378276691682677 3.069747458321138e-07 -2.690935882355053e-20)
(0.001355681222809196 2.88232476749361e-07 9.453895397322369e-21)
(0.001333567671471229 2.657455215426602e-07 1.515541124966022e-20)
(0.001312207605075909 2.441170078373887e-07 -2.490027302710202e-20)
(0.00129156478267947 2.224740379107862e-07 1.385609416119508e-20)
(0.001271755979216247 2.0224653627976e-07 7.176294376504865e-21)
(0.001252894097274985 1.825328645104739e-07 -2.674812218619593e-20)
(0.001235082785025375 1.647098117504462e-07 -1.648696200830958e-21)
(0.001218231929572761 1.475090751287481e-07 -8.333656461840605e-21)
(0.001202394693743651 1.323695505136084e-07 1.685687664798003e-20)
(0.001187559838078545 1.177471868870183e-07 -1.669879268157151e-21)
(0.001173718402963415 1.048187973472733e-07 6.113507271996223e-21)
(0.00116092753737321 9.273114809917086e-08 1.028529028671478e-20)
(0.001149160717212538 8.189837953290878e-08 2.640182266226983e-20)
(0.001138445187634916 7.122729395905968e-08 5.84801473875461e-21)
(0.001128762472966478 6.199581843636797e-08 6.213034337195539e-20)
(0.001120006824286666 5.443738433593712e-08 2.424119837817828e-20)
(0.001112219304246122 4.655309997679507e-08 8.19938166072903e-21)
(0.001105352646367947 3.969701550650688e-08 4.663804560840633e-20)
(0.00109936703207739 3.327576107665534e-08 4.645391163682253e-20)
(0.001094269593328699 2.726468938779339e-08 2.327994921235476e-21)
(0.001090094112807683 2.313855641092565e-08 4.689010929808409e-20)
(0.001086716569921786 1.598451727595544e-08 3.533138835710188e-20)
(0.001084092030675788 1.096412070318073e-08 -1.828991848445106e-20)
(0.001082365587219788 8.220496320146366e-09 -1.637224977711521e-20)
(0.001081399046344766 3.848852454875449e-09 3.400468209600782e-20)
(0.001081276203514557 1.295270557389367e-09 -1.077788122745067e-20)
(0.001081975529100078 -2.370102780317043e-09 -3.963203123658507e-21)
(0.001083404720604787 -5.628095596419443e-09 2.985716107233409e-20)
(0.001085586124039603 -8.737633828475356e-09 -4.367062093489069e-20)
(0.001088488693697776 -1.156840498958968e-08 -7.470334980285159e-20)
(0.00109210439034936 -1.438049509403051e-08 5.67782844234954e-20)
(0.001096424740748378 -1.697017373856685e-08 -1.500502625210756e-20)
(0.00110142406425876 -1.948070790101832e-08 -3.896527831496268e-20)
(0.001107114429569809 -2.146587547575408e-08 -7.025873312418668e-20)
(0.001113492969870228 -2.375442814919935e-08 -2.786303770922873e-19)
(0.00112051086798882 -2.58688512438137e-08 -1.337365077828409e-19)
(0.001128172606368588 -2.790142402145702e-08 5.787387504059019e-20)
(0.001136444975724891 -2.956598104248279e-08 1.411458974952283e-19)
(0.001145316852560154 -3.141722004270547e-08 1.566822266974439e-19)
(0.001154785835208137 -3.296586651971833e-08 -1.54567649661872e-19)
(0.001164792066239274 -3.452895928524416e-08 -1.82692909344499e-19)
(0.001175378887716393 -3.46927440993524e-08 -1.863063713389085e-19)
(0.001186533159390474 -3.588710842711981e-08 2.076761448301027e-19)
(0.001198143049785597 -3.5561037262578e-08 1.386334635934865e-20)
(0.001210262774789382 -3.7281254364613e-08 1.371099933369623e-19)
(0.001222726836894563 -3.90371383994001e-08 -2.509503541611159e-19)
(0.001235483750563466 -3.934213436457687e-08 9.891145677953205e-21)
(0.001248578179886669 -3.965044914163662e-08 2.265867894509876e-19)
(0.001261951286683895 -4.006341752678092e-08 -6.994942575652285e-20)
(0.001275530003805806 -4.071105738754076e-08 1.605120400198952e-19)
(0.00128923452036096 -4.071998758947783e-08 3.868205616807181e-20)
(0.001303080451077088 -4.102280623328952e-08 2.309256944215602e-19)
(0.001316993807036786 -4.115421827087761e-08 5.708443741602762e-21)
(0.001330938216353007 -4.188792694743677e-08 2.977852598880832e-19)
(0.001344873232296953 -4.25220661894037e-08 7.377427839969455e-20)
(0.001358744238160504 -4.362891259212209e-08 -8.924006602422411e-20)
(0.001372534729108648 -4.541994063532962e-08 6.768180078299604e-20)
(0.001386245405117785 -4.828940327249653e-08 1.685445447168635e-19)
(0.001399829517911672 -5.089592613433954e-08 -2.068568126835006e-19)
(0.001413270364802711 -5.527813201052283e-08 8.746857151333257e-21)
(0.001426646184981348 -6.126284306118656e-08 -6.847219300870497e-20)
(0.001439763169915051 -6.583348129328274e-08 1.597314171443933e-19)
(0.001452363632614337 -6.787275278446292e-08 -2.613918068873739e-19)
(0.00146486787371286 -8.112125614323673e-08 -1.225281566571226e-19)
(0.001477505960957686 -9.037490534101204e-08 -3.862865289358619e-20)
(0.001489936053405677 -1.022309418725521e-07 -1.589551331927173e-19)
(0.001502331212398462 -1.137567004870851e-07 2.384861638617572e-20)
(0.001514613986932762 -1.249605891876261e-07 4.056862635868043e-20)
(0.001526792202309168 -1.356021354141574e-07 -9.54923898256093e-20)
(0.00153878707129781 -1.467842716898255e-07 -2.120168648830641e-19)
(0.001550612985551693 -1.557469216988408e-07 -7.817434286257011e-20)
(0.001562153749195705 -1.646659214286132e-07 -5.544279113182633e-20)
(0.001573338724125248 -1.703774033995409e-07 2.152886993057586e-19)
(0.001584072120529609 -1.73575810965842e-07 2.391054822007328e-20)
(0.001594411424521994 -1.747441579031163e-07 -1.75931000648272e-21)
(0.001603970364474477 -1.675082245500933e-07 -2.526394094060352e-19)
(0.001612924962175971 -1.671019215261476e-07 -2.948150324098857e-19)
(0.001620982678951845 -1.485179429148065e-07 -2.849474222939104e-19)
(0.001626891855456067 -1.303315678687968e-07 1.345858185670472e-19)
(0.001630165225444196 -6.710188024832775e-08 -1.052837124729082e-19)
(0.001637734811082178 -1.61602286059127e-07 1.706718331462251e-19)
(0.004853292420217792 5.569059642283133e-07 3.535512836099212e-19)
(0.004835306846829075 -6.313255384461007e-08 1.817361969635147e-19)
(0.004838639507901688 6.097309934388513e-07 -3.151497448810359e-20)
(0.004817220081494922 7.285243665250879e-07 2.53721898545977e-20)
(0.004806325142828507 1.011057644735021e-06 1.492646875286137e-19)
(0.004780273046094179 1.28727355734746e-06 4.916549204519896e-20)
(0.004753041588151218 1.483671105498808e-06 3.201157348268724e-20)
(0.004718672586227891 1.689469299571074e-06 -1.034390542021235e-19)
(0.004679749001979802 1.864272718804717e-06 -4.536505022298175e-20)
(0.004635884678415613 2.009104315262244e-06 -2.971105000216635e-19)
(0.004588412031905092 2.13653334452327e-06 -1.361548858893843e-19)
(0.004537137112562753 2.2367202075785e-06 -1.742789518859138e-19)
(0.004482943324921813 2.308653869911573e-06 -2.510342178243423e-19)
(0.004426893922001122 2.350576773175189e-06 -1.20430760261317e-19)
(0.0043693653589504 2.375269838244016e-06 -2.160039684763596e-19)
(0.004311233766465299 2.361215132337623e-06 -2.015285212090134e-19)
(0.004253088719809388 2.346219046564239e-06 7.325715481560618e-22)
(0.004195132611774603 2.297891924377443e-06 2.271220176051604e-21)
(0.004138180656131008 2.245504085578412e-06 3.031765843675861e-20)
(0.004082441573704968 2.172691374142554e-06 -2.748759048934036e-20)
(0.004028593770788354 2.091223517559262e-06 -3.238038182736117e-21)
(0.003976591929873398 2.00183155375758e-06 3.954568135365595e-20)
(0.003926757976076148 1.906386201398199e-06 3.908565402176632e-20)
(0.003879368403109821 1.803925626422622e-06 -8.325082557465816e-20)
(0.003834683418668173 1.699773980847061e-06 2.476114145537775e-21)
(0.003792537324152004 1.591788277536372e-06 1.079409995323977e-20)
(0.003753065117199587 1.486239593843183e-06 5.351810566656059e-20)
(0.003716257913012154 1.378345310057234e-06 3.266346559977154e-20)
(0.003682109834117029 1.273635104333201e-06 5.979981998008041e-20)
(0.003650761306121325 1.168746113814452e-06 7.304327780670768e-20)
(0.003622172635782996 1.065809793876029e-06 3.947313578151427e-20)
(0.003596399875969264 9.608352042870444e-07 7.783150916326807e-20)
(0.00357339211496795 8.631703415329865e-07 1.406047434316241e-19)
(0.00355293645640663 7.725507260854848e-07 7.987541847928407e-20)
(0.003535106149365929 6.778403303346871e-07 5.2443896738555e-20)
(0.003519790578838147 5.877212055034396e-07 8.225472252598792e-20)
(0.003506924904369191 5.02172974965593e-07 8.553009616953642e-20)
(0.003496446433913072 4.120762831961511e-07 7.62426448648955e-21)
(0.00348855184947028 3.333785432315726e-07 6.857396304639501e-20)
(0.003482871877885693 2.477960529043495e-07 3.231800641621007e-20)
(0.003479255398645555 1.675323969857536e-07 -5.948370515518076e-20)
(0.003478152023737536 9.41984424357645e-08 -5.711366799276767e-20)
(0.003479105299426633 2.013174808038162e-08 -4.366102050422094e-20)
(0.003482398224915636 -5.174375113452405e-08 -7.229010670426325e-20)
(0.003487954267422313 -1.241098916291261e-07 -1.526961278182575e-20)
(0.003495514798049708 -1.935842665371881e-07 9.474880583241937e-20)
(0.003505142928761816 -2.621921121926292e-07 -1.418205359593447e-19)
(0.003516744635685127 -3.286703369395021e-07 -2.429016937620897e-19)
(0.003530287400602682 -3.94372265578621e-07 2.566166412148846e-20)
(0.003545742138676174 -4.582083839896064e-07 -1.861729422551768e-19)
(0.003563024498665891 -5.21029120563943e-07 -1.866202111719552e-19)
(0.003582153116763823 -5.818297352245437e-07 -1.264241112181719e-19)
(0.003603108757893198 -6.422107956212191e-07 -3.506197725528743e-19)
(0.003625738156614709 -7.006124752702686e-07 -1.944606500532503e-19)
(0.003650040687776363 -7.575137268164717e-07 7.995639835564775e-20)
(0.003675908122989961 -8.115971454062619e-07 1.379518278969042e-19)
(0.003703288619735087 -8.654832545690624e-07 2.166535926446392e-19)
(0.003732153321785797 -9.161825289294201e-07 -1.831824434288585e-19)
(0.00376232551671119 -9.649778487343157e-07 -1.691936521870689e-19)
(0.003793874596614703 -1.009037895631038e-06 -2.717281420468845e-19)
(0.003826761900085089 -1.052176473271496e-06 3.249705118084186e-19)
(0.003860651059304153 -1.088852466004064e-06 1.18028486694472e-20)
(0.003895640367039552 -1.128809899921067e-06 -1.305168536361673e-19)
(0.003931315781063713 -1.162798807292839e-06 -6.155420335668005e-19)
(0.003967501374986334 -1.190020670684587e-06 -4.874774618090299e-20)
(0.004004274082653735 -1.214782158549465e-06 7.367820159906004e-19)
(0.004041440723536402 -1.235333527809157e-06 7.053666803196205e-20)
(0.004078794171500422 -1.251459012683972e-06 -1.080899846840425e-19)
(0.004116104092933259 -1.261501031728843e-06 1.203067086026309e-19)
(0.004153361277480888 -1.268633091548364e-06 1.994200446499692e-19)
(0.004190362213078468 -1.270430431478139e-06 -1.533762298770846e-19)
(0.004226980133584701 -1.270171054403439e-06 3.245887918349169e-19)
(0.004263087870948709 -1.264994554252357e-06 3.017489674997994e-19)
(0.004298532907608093 -1.257524056234691e-06 -2.902803109888725e-19)
(0.004333254794692676 -1.249676360176735e-06 -3.278754986060041e-19)
(0.004367225063017428 -1.241992406196556e-06 5.837604563082254e-19)
(0.004400331908833459 -1.229666080562809e-06 -5.995963522843686e-20)
(0.004432535527411947 -1.222118903484771e-06 1.086466252413622e-20)
(0.004463955998261149 -1.212980012255542e-06 -2.181474878084326e-19)
(0.004494110426643625 -1.182401745438281e-06 5.461365419161406e-20)
(0.004522569609932265 -1.149188843894265e-06 -3.461330392237474e-19)
(0.004550203339357505 -1.167678892235087e-06 -2.707402808108948e-19)
(0.004577532390001228 -1.165094423656718e-06 -1.1602047020512e-19)
(0.004603799002936601 -1.167051102108109e-06 -5.413316296756362e-19)
(0.004629437319393854 -1.169634757241312e-06 1.667314518363918e-19)
(0.004654300780675169 -1.168922142110868e-06 1.258292167056416e-19)
(0.004678420998705507 -1.16664457908824e-06 -3.031298411507934e-19)
(0.00470154148770146 -1.166870130988578e-06 -6.859791924711175e-19)
(0.004723774439182404 -1.158055526110729e-06 -2.237528836736915e-19)
(0.004744811532043544 -1.146668403164817e-06 -3.098678655050963e-19)
(0.004764529741411009 -1.12043144956274e-06 5.962596807683302e-20)
(0.004782622266314673 -1.085944350151182e-06 9.057351345180771e-20)
(0.004799348109814051 -1.046797294815e-06 -1.385559104536353e-19)
(0.004813954339331782 -9.788372749771435e-07 -2.118031239711792e-19)
(0.004826795483844833 -9.279763887359296e-07 -3.747176700587183e-19)
(0.004837615532706263 -7.575448702645201e-07 -7.767059288569244e-19)
(0.00484317523599435 -5.685933848063683e-07 4.454310868272311e-19)
(0.004845455934784203 -3.98772810208593e-07 -3.75106784196294e-21)
(0.004855628836672301 -6.345835423388926e-07 4.660463785350979e-19)
(0.00804581499585409 1.479253524776705e-06 2.26346981108319e-19)
(0.008013784489027901 3.557214489841683e-07 -4.191795237934126e-20)
(0.008014853734229112 1.610822252351394e-06 -5.543193599359514e-20)
(0.007985978500987503 1.99309384554134e-06 2.538758968517048e-20)
(0.007973213475282718 2.591423596184614e-06 6.763371082195793e-20)
(0.007940628126087214 3.306390310823542e-06 -1.356968047713667e-19)
(0.007906816744821242 3.804021030483794e-06 -1.960096419374636e-19)
(0.00786327675253305 4.361745744299541e-06 -1.890060941790108e-19)
(0.007813316654313032 4.844490324524434e-06 -1.057564035797203e-19)
(0.007756267500317241 5.261610083593652e-06 -2.213104370035152e-19)
(0.007694069948884481 5.633642388825039e-06 -1.68285882345923e-19)
(0.007626398803259864 5.937366478549282e-06 -3.462350856851725e-19)
(0.00755452613502494 6.172101946895481e-06 -2.378805345452484e-19)
(0.007479854762253929 6.333600707394096e-06 -1.93458185838795e-19)
(0.007402984492093995 6.44139445375714e-06 -3.576527015340937e-19)
(0.007325079026164329 6.456484204946094e-06 -1.637583673521879e-19)
(0.007247024594829494 6.452210065745255e-06 -4.38589704517205e-21)
(0.007169112023020178 6.366027659105652e-06 -8.345073197278431e-20)
(0.007092541253851076 6.254616963310906e-06 -1.492676495653369e-20)
(0.007017632332717136 6.091448523935371e-06 -7.544986355595049e-20)
(0.006945337014136071 5.894310971287557e-06 -7.907143634315126e-20)
(0.006875659886460988 5.671250684528901e-06 3.103831652649148e-20)
(0.006809076974743723 5.424569404724372e-06 2.59850367131034e-20)
(0.006745958049551285 5.157018085268979e-06 -6.71934057062424e-20)
(0.006686668469123876 4.875677426660493e-06 1.399456851709309e-20)
(0.006631063888823926 4.580421467684296e-06 2.304144469842954e-20)
(0.006579344266354628 4.285619110070647e-06 3.204657755610642e-20)
(0.006531520177905469 3.980173454832855e-06 6.184675661340917e-20)
(0.006487609108254966 3.679344251621373e-06 7.616621547352804e-20)
(0.006447798799597079 3.374276716290663e-06 1.102606010201679e-19)
(0.006412067492656969 3.070157127948311e-06 4.848322388296067e-20)
(0.006380472014126653 2.759711641910103e-06 8.590893389845457e-20)
(0.006352946782610219 2.468477619727747e-06 1.731143429510213e-19)
(0.006329270761349256 2.190746935714928e-06 1.615967844251066e-19)
(0.006309512091380669 1.900159638807551e-06 1.272155117277739e-19)
(0.006293502938572271 1.618274648361553e-06 1.328904140821408e-19)
(0.00628127223077726 1.357613091265977e-06 7.051491776609167e-20)
(0.006272487359814306 1.069421924299451e-06 9.613732448706045e-21)
(0.006267724222042029 8.070656295694567e-07 5.176236402452189e-20)
(0.00626635646584639 5.633303296792755e-07 4.150650948416937e-20)
(0.006268004670747544 3.096468861596188e-07 -1.052887661252616e-19)
(0.006273485822352557 6.587571764510365e-08 1.414742865876544e-20)
(0.006282155409966869 -1.739731642031115e-07 8.505802027542259e-20)
(0.006294268599513003 -4.074412217270329e-07 -8.529081404145356e-21)
(0.0063097766614875 -6.395128475722614e-07 -5.937280274634753e-20)
(0.006328287349750663 -8.628443020137434e-07 1.618893411036036e-20)
(0.006349887340159264 -1.083221341271639e-06 -2.296454295009707e-19)
(0.00637441930438927 -1.297099891933605e-06 -2.050482468566248e-19)
(0.006401809950063615 -1.507532967426549e-06 9.742904775405502e-21)
(0.006432003438507099 -1.712032255489608e-06 -3.51113985125572e-19)
(0.006464841770042764 -1.912534449309628e-06 -8.155065351889739e-20)
(0.006500325092275988 -2.107194890570145e-06 -6.964613575182156e-20)
(0.006538396097916541 -2.29838148645059e-06 -1.584825733904999e-19)
(0.006578790275727914 -2.482321689962166e-06 -2.668921468395696e-20)
(0.00662147818127009 -2.660348785965873e-06 3.797189108445239e-21)
(0.006666261979624464 -2.829450810770702e-06 1.293436372002954e-19)
(0.006713019914954823 -2.995276726992182e-06 -5.002994056574897e-20)
(0.006761667083967915 -3.150861544444763e-06 -2.215603431956043e-19)
(0.006811904417603739 -3.298565292386135e-06 1.619834907630143e-20)
(0.00686375008800257 -3.434083385692612e-06 -5.410009250385439e-20)
(0.006917121500568528 -3.562422517449064e-06 3.799333453725785e-19)
(0.006971475493621009 -3.672978664081461e-06 1.585399775511734e-19)
(0.007026852985296622 -3.782711292401247e-06 -2.917324703048138e-19)
(0.007082709140725382 -3.874196526855668e-06 -5.141037679349545e-19)
(0.007138725550406455 -3.946535099547668e-06 3.09339545513489e-19)
(0.007194907959339447 -4.008930560340931e-06 7.020123519995897e-19)
(0.007250923313292352 -4.055630042566793e-06 2.544016334684374e-19)
(0.007306437932580713 -4.087210063858656e-06 3.941008713136367e-19)
(0.007361087249485909 -4.099386765889449e-06 2.109704921217716e-19)
(0.007414771289894604 -4.099676118052271e-06 3.255941423947171e-19)
(0.007467170861227309 -4.08293498251108e-06 1.314757928592232e-19)
(0.007518053744311709 -4.055852302143264e-06 3.301578581393528e-19)
(0.007567204177241939 -4.013451356150663e-06 4.23874640909249e-20)
(0.007614384743128131 -3.961611415116822e-06 -4.597474876004401e-19)
(0.007659478873169485 -3.904884913253561e-06 -6.152772730654276e-20)
(0.00770241427847956 -3.844903011980044e-06 6.301240163987544e-19)
(0.007743046942879635 -3.773294118589105e-06 5.964244905228728e-20)
(0.007781308011651079 -3.707570336966378e-06 2.374857503642919e-19)
(0.007817299116705159 -3.632219593497828e-06 -4.323540981787772e-19)
(0.007850422775408929 -3.502503831389211e-06 -5.493733192895472e-19)
(0.007880329125249459 -3.380868091939002e-06 -5.520900350462813e-19)
(0.007907933779344262 -3.3634604266791e-06 -3.801315591402173e-19)
(0.007933983155066372 -3.302055700994675e-06 -1.059762449936716e-19)
(0.007957529443481713 -3.247221720996842e-06 -4.518359023117269e-19)
(0.007979260109458573 -3.194419807123144e-06 -1.318729114744869e-19)
(0.007999054080089062 -3.130003538783032e-06 2.697234954695268e-19)
(0.00801705475710171 -3.058527233703557e-06 -4.525222450508988e-19)
(0.008032756943580582 -2.986867753005947e-06 -6.451822649879725e-19)
(0.008046549222589844 -2.893162559006851e-06 -3.656282887747527e-19)
(0.008057973982874484 -2.786223013415804e-06 -1.18219324126424e-19)
(0.008067020561444144 -2.642481698856182e-06 2.155420428475511e-20)
(0.008073104791067069 -2.471385534118382e-06 1.927795142002718e-19)
(0.008076999735306414 -2.283533103612498e-06 -4.459111929935556e-19)
(0.00807791287271702 -2.062361104365168e-06 -2.069432148626405e-19)
(0.008076347639413835 -1.848803713751804e-06 -2.918450027855401e-19)
(0.00807325425054526 -1.400623939301449e-06 -8.265506898793915e-19)
(0.008063640553240199 -9.319378828975546e-07 2.540847534260035e-19)
(0.008054536755213752 -5.945010621318376e-07 4.18709993873479e-19)
(0.008055609019008472 -9.760883140595045e-07 4.457361544134853e-19)
(0.01114796878950907 2.91555300944288e-06 1.43578361743695e-19)
(0.0111004172274866 1.584048156007597e-06 -1.568207246265256e-19)
(0.01109535826235489 3.455309695082282e-06 -9.226049494304214e-20)
(0.01106198602847697 4.340704919793844e-06 4.841671053474639e-21)
(0.01104834560945735 5.37033674657212e-06 -2.862755605102895e-19)
(0.01101431786044747 6.678965247962535e-06 -3.026401687700283e-19)
(0.01097892613192687 7.62602137150673e-06 -1.011086400393125e-19)
(0.01093303516027861 8.680441733108894e-06 -8.138947104391397e-20)
(0.01087974902011978 9.603826375821577e-06 -1.322779985958337e-19)
(0.01081831863047656 1.04090429413189e-05 -1.858250453736579e-19)
(0.01075106983870796 1.112742493986464e-05 -1.932017751396621e-19)
(0.01067760048177462 1.171742439790882e-05 -3.137507773638259e-19)
(0.01059944153404937 1.217899170604086e-05 -9.316489914740023e-20)
(0.01051810243500157 1.250231105726033e-05 -1.922338382818329e-19)
(0.01043442864674504 1.2714455793276e-05 -3.713321457104913e-19)
(0.01034959654716395 1.276576141950609e-05 -1.65855065998443e-19)
(0.01026472958292176 1.275539345238374e-05 -5.621330853606144e-20)
(0.01018015791067283 1.2601457975746e-05 -1.208021856498805e-19)
(0.01009731991778485 1.238121709441343e-05 -7.328729182463101e-20)
(0.01001659632677588 1.206653379720974e-05 -2.330729472098878e-20)
(0.009939069757455475 1.167732256169411e-05 -1.327773567658981e-19)
(0.009864812106462048 1.123367171269749e-05 -4.310210942217346e-20)
(0.00979436588590807 1.073883578615787e-05 9.019806309890945e-20)
(0.009728119935289934 1.02028628513737e-05 2.780340300606446e-20)
(0.009666478443370414 9.633080423587797e-06 3.019618492160331e-20)
(0.009609351193497213 9.035818270287861e-06 1.997433607239334e-20)
(0.009556965802879465 8.432500492984598e-06 6.697681299767615e-20)
(0.009509342981961341 7.80657278984477e-06 8.381781007179109e-20)
(0.009466525091316205 7.185644247246555e-06 8.059597852768132e-20)
(0.009428697434200774 6.554114791352051e-06 8.655609559632563e-20)
(0.009395851682658735 5.921089991885518e-06 5.141209577243273e-20)
(0.00936800962041516 5.281641416728636e-06 2.06355667238592e-20)
(0.009345098041464954 4.679364746946923e-06 1.332880718620778e-19)
(0.009326950263564357 4.082304950269783e-06 1.540096435667725e-19)
(0.009313640906414726 3.47283332444495e-06 1.398142581746408e-19)
(0.009304792888784703 2.861905743425333e-06 1.782161253602756e-19)
(0.009300911427161516 2.290396101004671e-06 1.086402316763543e-19)
(0.009300788005397829 1.751988923066275e-06 -1.114977747541387e-20)
(0.009305869466201074 1.175727924064235e-06 1.889894382251039e-19)
(0.009315025337212488 6.346270010061584e-07 1.031045559238794e-19)
(0.009328169391444058 1.013650132496227e-07 -1.730537245644178e-20)
(0.009345791549822421 -4.188991326305946e-07 -4.267593386230195e-20)
(0.009367348874814876 -9.27346130121555e-07 8.847115494338444e-20)
(0.00939303380405347 -1.423054128694817e-06 2.703059120994328e-19)
(0.009422796379233902 -1.913825285053359e-06 3.590794642795419e-20)
(0.009456174117786549 -2.385983428683909e-06 1.649002864196743e-21)
(0.009493237406195917 -2.850327953576423e-06 -2.569211519124391e-19)
(0.009533778023074257 -3.300098183668337e-06 -1.728381155988832e-19)
(0.009577662170817881 -3.740316910491324e-06 1.142308687342419e-19)
(0.009624804350528133 -4.166830136577281e-06 -5.5692184459402e-19)
(0.009674963112985444 -4.582505493805251e-06 -4.744521337432416e-19)
(0.009728100832726745 -4.984471595235956e-06 3.3081535675495e-20)
(0.009784096981897035 -5.375991205494516e-06 8.566435488304509e-22)
(0.009842591690155134 -5.749865849893128e-06 1.227150493798025e-19)
(0.00990350238675114 -6.108809197629456e-06 2.48703770973889e-19)
(0.009966543389733724 -6.44741365099238e-06 1.805229038468787e-19)
(0.0100315036348207 -6.774700066680558e-06 1.055400343101678e-19)
(0.01009822328388645 -7.079208565017616e-06 8.81887942788166e-22)
(0.010166296894329 -7.363396890433575e-06 7.846985780088863e-20)
(0.01023563788546145 -7.621290348287852e-06 3.786057010881548e-20)
(0.01030608534204059 -7.861100882533486e-06 3.793122931409299e-19)
(0.01037700372726368 -8.062688483496217e-06 -1.152290017962132e-19)
(0.01044823114959016 -8.253269471404155e-06 -2.101450959505324e-19)
(0.01051922505100796 -8.408793987302358e-06 -9.53178013553446e-20)
(0.01058956285723337 -8.523447236709135e-06 3.078911249589684e-19)
(0.01065910256257012 -8.613678168151139e-06 7.988125743764872e-19)
(0.01072740629491742 -8.66924267800735e-06 4.326118180649493e-19)
(0.01079404025355046 -8.693181440666829e-06 3.75452040444759e-19)
(0.0108585339679699 -8.675890288723174e-06 3.174569158877392e-19)
(0.01092067685826298 -8.631395753404026e-06 5.285390310158787e-19)
(0.01098006633686677 -8.552332780371021e-06 1.661008991227093e-19)
(0.01103637963057413 -8.448903769411744e-06 3.553643468124286e-19)
(0.01108933429043083 -8.315709165240599e-06 4.872344798370261e-20)
(0.01113864130395236 -8.161914645305189e-06 -5.858864388042289e-19)
(0.01118412180735603 -7.995232465610701e-06 4.032889000339515e-20)
(0.01122566334360778 -7.820362383738605e-06 2.787629600157169e-19)
(0.01126311888064913 -7.62640221989737e-06 1.151493776111384e-19)
(0.01129637771318782 -7.436543386347512e-06 2.092356151122574e-19)
(0.01132555324151539 -7.229416005444782e-06 3.580486665922455e-21)
(0.01135013648291898 -6.931631556415069e-06 -4.5865534317681e-19)
(0.01136993635425356 -6.658123465647256e-06 -1.712763563937996e-19)
(0.01138555561975056 -6.540376028590841e-06 -5.285349486584438e-19)
(0.0113979846299083 -6.357250696363697e-06 3.370327281181013e-20)
(0.0114061445072829 -6.18161598928106e-06 -3.780427999977865e-19)
(0.01141105075953106 -6.005945109379398e-06 -4.291779456507714e-19)
(0.01141259931216101 -5.83992326238648e-06 -9.124437960836162e-20)
(0.01141133096661216 -5.637459950396542e-06 -3.599156486031699e-19)
(0.01140613909474029 -5.418763029507911e-06 -6.700271220756879e-19)
(0.01139801980176357 -5.171651260512756e-06 -3.913766452121538e-19)
(0.01138625912109062 -4.890314089086915e-06 -1.53304142581387e-20)
(0.01137127463398464 -4.548076826393156e-06 2.056590626738328e-20)
(0.01135189293140693 -4.148412751594886e-06 -9.581688639765245e-20)
(0.01132997214581389 -3.729602839936404e-06 -3.762029472221715e-19)
(0.01130447420605134 -3.231998177875457e-06 -1.966228108858548e-19)
(0.01127609595030012 -2.745986385943892e-06 -5.275747878538293e-19)
(0.011247597812333 -1.900106901202008e-06 -5.393905275327575e-19)
(0.01121375597099694 -1.062702187683859e-06 -5.544663082354545e-20)
(0.0111850540595084 -4.978898989175037e-07 3.252449792258933e-19)
(0.01116858076551945 -7.072103104631525e-07 3.437210639080821e-19)
(0.01405115732710605 4.987137218142172e-06 -1.391403315413801e-19)
(0.01398786412483784 3.875030716296291e-06 -2.732435864368214e-19)
(0.01397302563002092 6.35142279628095e-06 -1.961036569648042e-19)
(0.01393547076425673 7.929739018803001e-06 -1.795934512324965e-19)
(0.01391900714566575 9.49191891059369e-06 -2.944014208290275e-19)
(0.01388435565987134 1.146797911551598e-05 -2.664177116709261e-19)
(0.01384793903244022 1.298538443186295e-05 -7.902590706629377e-20)
(0.0138017036168957 1.461800370003457e-05 -3.810842774231713e-20)
(0.01374783412014959 1.606583767270375e-05 -1.501492080006646e-19)
(0.01368571625279238 1.732423440289651e-05 -1.704462035842609e-19)
(0.01361784372191166 1.844253454323663e-05 -1.846721175767058e-19)
(0.01354377628606911 1.935419538925262e-05 -2.404520338649491e-19)
(0.01346528196873763 2.006126148735358e-05 -1.13678932245285e-19)
(0.0133838723982601 2.054850148008559e-05 -2.334730970537915e-19)
(0.01330047149151154 2.085218108175468e-05 -3.008364400622856e-19)
(0.01321620702856873 2.091956367232799e-05 -9.735998692211203e-20)
(0.0131323452503356 2.085967215246663e-05 -1.324567346787301e-19)
(0.01304922050818561 2.058907765561852e-05 -6.049432881177055e-20)
(0.01296836100931581 2.019390834694518e-05 -4.029089112312762e-20)
(0.01289016010295112 1.965430734141468e-05 -8.596157152470547e-20)
(0.01281571072998613 1.898837259025086e-05 -5.853668109614402e-20)
(0.01274513420262773 1.823083270504605e-05 -5.995103376398796e-20)
(0.01267895961994064 1.738762463815211e-05 2.833813319226618e-20)
(0.01261754327304731 1.647781421519639e-05 3.912441701260933e-20)
(0.01256126881485911 1.550928792034024e-05 5.456574827415099e-20)
(0.01251009539872031 1.449753860979e-05 -1.677852465769164e-20)
(0.01246424167330988 1.346857840419869e-05 6.760585060430143e-20)
(0.01242371961676832 1.240407611554665e-05 1.009866289645441e-19)
(0.01238858434233932 1.134292455579346e-05 8.389283139101202e-20)
(0.01235897853476524 1.026426819393842e-05 8.238990439834467e-20)
(0.01233489224627323 9.185495140998468e-06 8.382827293293904e-20)
(0.01231629146180079 8.11430763642228e-06 2.784371999111269e-20)
(0.0123030610944452 7.067596345629766e-06 7.11200534918476e-20)
(0.01229508141079725 5.969899787966484e-06 5.675647572582058e-20)
(0.01229274108109702 4.987071511959843e-06 1.113561899884233e-19)