/*--------------------------------*- C++ -*----------------------------------*\
| =========                 |                                                 |
| \\      /  F ield         | OpenFOAM: The Open Source CFD Toolbox           |
|  \\    /   O peration     | Version:  v1812                                 |
|   \\  /    A nd           | Web:      www.OpenFOAM.com                      |
|    \\/     M anipulation  |                                                 |
\*---------------------------------------------------------------------------*/
FoamFile
{
    version     2.0;
    format      ascii;
    class       volScalarField;
    location    "0";
    object      ub;
}
// * * * * * * * * * * * * * * * * * * * * * * * * * * * * * * * * * * * * * //

dimensions      [0 1 -1 0 0 0 0];


internalField   nonuniform List<scalar> 
14751
(
6.2953419982765046e-02
6.6747657954692841e-02
6.8672746419906616e-02
7.0749983191490173e-02
7.3107138276100159e-02
7.5648263096809373e-02
7.8222498297691345e-02
8.0776840448379517e-02
8.3222359418869019e-02
8.5464254021644606e-02
8.7430007755756378e-02
5.9566926211118698e-02
3.0714750289916999e-02
3.0792172998189919e-02
3.0819561332464222e-02
3.0916383489966399e-02
3.1022178009152419e-02
3.0793122947216041e-02
3.0533911660313599e-02
3.0374817550182339e-02
3.0009951442480080e-02
2.9674202203750621e-02
2.9459711164236058e-02
2.8997538611292839e-02
2.8340023010969159e-02
2.7607977390289300e-02
2.6956550776958459e-02
2.6386788114905361e-02
2.5827478617429740e-02
2.5335850194096558e-02
2.4865929037332542e-02
2.4382742121815681e-02
2.3885833099484440e-02
2.3417284712195400e-02
2.2936552762985219e-02
2.2560598328709599e-02
2.2267263382673260e-02
2.1891325712203979e-02
2.1576389670371999e-02
2.1331479772925380e-02
2.1008588373661041e-02
2.0657043904066079e-02
2.0315574482083321e-02
2.0025392994284619e-02
1.9745424389839172e-02
1.9531942903995514e-02
1.9450493156909943e-02
1.9258106127381325e-02
1.8958022817969322e-02
1.8801366910338402e-02
1.8760485574603081e-02
1.8745835870504379e-02
1.8737629055976868e-02
1.8798163160681725e-02
1.8901858478784561e-02
1.8989689648151398e-02
1.9046941772103310e-02
1.9075905904173851e-02
1.9117806106805801e-02
1.9236812368035316e-02
1.9396388903260231e-02
1.9598778337240219e-02
1.9760901108384132e-02
1.9850417971611023e-02
2.0104762166738521e-02
2.0498219877481461e-02
2.0819414407014840e-02
2.1086983382701881e-02
2.1498661488294601e-02
2.1966863423585899e-02
2.2231033071875579e-02
2.2613387554883960e-02
2.3147193714976321e-02
2.3551601916551580e-02
2.4032875895500180e-02
2.4563523009419441e-02
2.5076879188418381e-02
2.5548355653882020e-02
2.5813698768615719e-02
2.6019830256700519e-02
2.6289107277989381e-02
2.6486560702323921e-02
2.6630247011780739e-02
2.6768703013658520e-02
2.6873052120208740e-02
2.7003355324268341e-02
2.7104690670967099e-02
5.3522564470767982e-02
7.9247668385505676e-02
7.7822566032409654e-02
7.6316893100738525e-02
7.4802115559577942e-02
7.2974301874637604e-02
7.1088597178459154e-02
6.9351807236671434e-02
6.7785203456878662e-02
6.6587239503860474e-02
6.5590053796768175e-02
6.2955578915725952e-02
2.1134167877136353e-01
6.6747657954692841e-02
6.8672746419906616e-02
7.0749983191490173e-02
7.3107138276100159e-02
7.5648263096809373e-02
7.8222498297691345e-02
8.0776840448379517e-02
8.3222359418869019e-02
8.5464254021644606e-02
8.7430007755756378e-02
5.9566926211118698e-02
3.0714750289916999e-02
3.0792172998189919e-02
3.0819561332464222e-02
3.0916383489966399e-02
3.1022178009152419e-02
3.0793122947216041e-02
3.0533911660313599e-02
3.0374817550182339e-02
3.0009951442480080e-02
2.9674202203750621e-02
2.9459711164236058e-02
2.8997538611292839e-02
2.8340023010969159e-02
2.7607977390289300e-02
2.6956550776958459e-02
2.6386788114905361e-02
2.5827478617429740e-02
2.5335850194096558e-02
2.4865929037332542e-02
2.4382742121815681e-02
2.3885833099484440e-02
2.3417284712195400e-02
2.2936552762985219e-02
2.2560598328709599e-02
2.2267263382673260e-02
2.1891325712203979e-02
2.1576389670371999e-02
2.1331479772925380e-02
2.1008588373661041e-02
2.0657043904066079e-02
2.0315574482083321e-02
2.0025392994284619e-02
1.9745424389839172e-02
1.9531942903995514e-02
1.9450493156909943e-02
1.9258106127381325e-02
1.8958022817969322e-02
1.8801366910338402e-02
1.8760485574603081e-02
1.8745835870504379e-02
1.8737629055976868e-02
1.8798163160681725e-02
1.8901858478784561e-02
1.8989689648151398e-02
1.9046941772103310e-02
1.9075905904173851e-02
1.9117806106805801e-02
1.9236812368035316e-02
1.9396388903260231e-02
1.9598778337240219e-02
1.9760901108384132e-02
1.9850417971611023e-02
2.0104762166738521e-02
2.0498219877481461e-02
2.0819414407014840e-02
2.1086983382701881e-02
2.1498661488294601e-02
2.1966863423585899e-02
2.2231033071875579e-02
2.2613387554883960e-02
2.3147193714976321e-02
2.3551601916551580e-02
2.4032875895500180e-02
2.4563523009419441e-02
2.5076879188418381e-02
2.5548355653882020e-02
2.5813698768615719e-02
2.6019830256700519e-02
2.6289107277989381e-02
2.6486560702323921e-02
2.6630247011780739e-02
2.6768703013658520e-02
2.6873052120208740e-02
2.7003355324268341e-02
2.7104690670967099e-02
5.3522564470767982e-02
7.9247668385505676e-02
7.7822566032409654e-02
7.6316893100738525e-02
7.4802115559577942e-02
7.2974301874637604e-02
7.1088597178459154e-02
6.9351807236671434e-02
6.7785203456878662e-02
6.6587239503860474e-02
6.5590053796768175e-02
2.1136735195458459e-01
3.6633595309186368e-01
2.1734350919723519e-01
2.2290378808975220e-01
2.2898128628730779e-01
2.3591142892837519e-01
2.2083976864814761e-01
2.0530092716217041e-01
2.1166205406188959e-01
2.1767251193523399e-01
2.2318290174007421e-01
2.2802990674972540e-01
2.0251059532165519e-01
1.7462484538555145e-01
1.7481914162635803e-01
1.7480282485485077e-01
1.7478594183921814e-01
1.7460851371288300e-01
1.7376290261745453e-01
1.7259570956230164e-01
1.7134164273738861e-01
1.6964498162269592e-01
1.6776658594608307e-01
1.6577221453189850e-01
1.6312153637409210e-01
1.5997961163520813e-01
1.5671090781688690e-01
1.5363195538520813e-01
1.5077252686023712e-01
1.4806127548217773e-01
1.4556078612804413e-01
1.4316585659980774e-01
1.4065316319465637e-01
1.3820695877075195e-01
1.3602118194103241e-01
1.3388349115848541e-01
1.3197962939739227e-01
1.3026352226734161e-01
1.2851077318191528e-01
1.2691001594066620e-01
1.2544141709804535e-01
1.2390482425689699e-01
1.2236643582582474e-01
1.2089919298887251e-01
1.1948068439960480e-01
1.1813192069530488e-01
1.1703747510910034e-01
1.1616189777851103e-01
1.1513379216194151e-01
1.1399876326322556e-01
1.1326839029788970e-01
1.1309595406055450e-01
1.1318958550691605e-01
1.1333766579627989e-01
1.1364075541496275e-01
1.1404810100793839e-01
1.1451596021652222e-01
1.1499285697937012e-01
1.1545515060424805e-01
1.1602139472961426e-01
1.1675867438316347e-01
1.1764926463365553e-01
1.1870063096284866e-01
1.1976911872625350e-01
1.2085282802581788e-01
1.2229029834270479e-01
1.2398973107337952e-01
1.2567505240440369e-01
1.2761762738227844e-01
1.2989245355129242e-01
1.3213680684566498e-01
1.3420215249061584e-01
1.3652834296226501e-01
1.3916707038879395e-01
1.4176854491233826e-01
1.4453826844692230e-01
1.4740914106369019e-01
1.5012367069721222e-01
1.5246517956256866e-01
1.5422199666500092e-01
1.5561330318450928e-01
1.5690557658672333e-01
1.5788911283016205e-01
1.5855832397937775e-01
1.5908601880073547e-01
1.5946887433528900e-01
1.5981385111808777e-01
1.6003991663455963e-01
1.8582648038864136e-01
2.0966157317161560e-01
2.0586970448493960e-01
2.0179007947444921e-01
1.9756942987442017e-01
1.9285038113594055e-01
2.0983961224555961e-01
2.2657363116741180e-01
2.2156004607677460e-01
2.1758149564266199e-01
2.1426749229431161e-01
3.6642034141462454e-01
4.9972441726701011e-01
3.7470433115959162e-01
3.8255226612091059e-01
3.9117047190666199e-01
3.8314202427864080e-01
3.5311394929885859e-01
3.4024342894554138e-01
3.4900721907615662e-01
3.5703432559967041e-01
3.6427655816078180e-01
3.4987163543701177e-01
3.3419182896614080e-01
3.3613273501396179e-01
3.3619970083236700e-01
3.3592748641967779e-01
3.3545589447021479e-01
3.3458191156387318e-01
3.3312115073204041e-01
4.4815218448638922e-01
4.4439893960952759e-01
4.4039833545684820e-01
4.3577331304550182e-01
4.3041521310806280e-01
4.2431125044822698e-01
4.1769725084304798e-01
4.1111877560615540e-01
4.0479004383087158e-01
3.9876028895378118e-01
3.9307206869125361e-01
3.8768619298934942e-01
3.8209137320518499e-01
3.7674069404602062e-01
3.7211361527442938e-01
3.6768800020217901e-01
3.6348339915275579e-01
3.5948485136032099e-01
3.5570329427719122e-01
3.5218510031700140e-01
3.4884676337242121e-01
3.6222472786903381e-01
3.7569856643676758e-01
3.7268772721290577e-01
3.6985030770301819e-01
3.6691421270370478e-01
3.6419469118118281e-01
3.6192306876182562e-01
3.5976344347000122e-01
3.5771203041076660e-01
3.5575664043426519e-01
3.5450923442840582e-01
3.5464516282081598e-01
3.5555273294448858e-01
3.5663729906082159e-01
3.5794624686241139e-01
3.5947555303573597e-01
3.6145088076591497e-01
3.6368888616561879e-01
3.6599341034889221e-01
3.6860138177871699e-01
3.5404604673385620e-01
3.3964037895202642e-01
3.4280627965927118e-01
3.4627649188041681e-01
3.5012304782867443e-01
3.5430213809013361e-01
3.5878440737724299e-01
3.6362695693969721e-01
3.6890411376953119e-01
3.7511116266250621e-01
3.8158461451530462e-01
3.8786172866821278e-01
3.9443445205688482e-01
4.0127664804458618e-01
4.0847158432006841e-01
4.1587188839912420e-01
4.2328327894210821e-01
4.3008598685264582e-01
4.3579167127609258e-01
4.4047525525093079e-01
4.4418990612030018e-01
4.4721090793609619e-01
3.1293094158172602e-01
3.1405675411224360e-01
3.1485515832901001e-01
3.1540477275848378e-01
3.1576773524284357e-01
3.1590536236763000e-01
3.1432265043258661e-01
3.3214223384857178e-01
3.4857299923896778e-01
3.4178555011749262e-01
3.3461621403694158e-01
3.2700198888778681e-01
3.4105417132377619e-01
3.7324845790863043e-01
3.8371545076370239e-01
3.7699919939041138e-01
3.7133353948593140e-01
4.9986342693230090e-01
6.0724207509143302e-01
5.0785237550735485e-01
5.1585638523101796e-01
5.1100462675094604e-01
4.8963561654090881e-01
4.8233938217163080e-01
4.9242123961448658e-01
5.0176370143890381e-01
4.9529618024826039e-01
4.8799914121627802e-01
5.8052474260330200e-01
5.8353424072265625e-01
5.7221949100494385e-01
5.5906343460082997e-01
5.5674690008163463e-01
5.5408692359924316e-01
5.5105346441268921e-01
5.4772776365280162e-01
5.4352486133575439e-01
5.3876012563705444e-01
5.3392183780670155e-01
5.2847397327423096e-01
5.2231574058532715e-01
5.1549309492111195e-01
5.0824481248855602e-01
5.0110721588134755e-01
4.9427071213722218e-01
4.8775476217269897e-01
4.8158866167068481e-01
4.8559716343879700e-01
4.8942413926124578e-01
4.8369881510734558e-01
4.7879272699356079e-01
4.7415047883987421e-01
4.6976384520530701e-01
4.6558964252471918e-01
4.6165120601654058e-01
4.5803251862525940e-01
4.5462211966514582e-01
4.5138329267501842e-01
4.4834357500076299e-01
4.4548982381820679e-01
4.4283175468444819e-01
4.4011753797531122e-01
4.3766424059867859e-01
4.3564918637275701e-01
4.3371641635894781e-01
4.3195113539695740e-01
4.3033775687217718e-01
4.2947474122047419e-01
4.3009254336357122e-01
4.3156307935714722e-01
4.3325948715209961e-01
4.3521451950073242e-01
4.3745961785316462e-01
4.4031402468681341e-01
4.4351267814636242e-01
4.4677281379699701e-01
4.5037239789962757e-01
4.5429000258445740e-01
4.5858499407768238e-01
4.6326622366905218e-01
4.6835371851921082e-01
4.7386223077774042e-01
4.7971498966217041e-01
4.8595249652862538e-01
4.9264651536941523e-01
4.9978074431419378e-01
5.0800257921218883e-01
5.0241857767105103e-01
4.9634909629821777e-01
5.0455576181411743e-01
5.1302134990692139e-01
5.2180987596511841e-01
5.3080755472183216e-01
5.3973299264907837e-01
5.4784548282623302e-01
5.5464476346969604e-01
5.6023114919662476e-01
5.6467521190643322e-01
5.6828951835632324e-01
5.7092046737670898e-01
5.7249492406845104e-01
5.7349121570587158e-01
5.7402479648590077e-01
5.7412648200988758e-01
5.8868360519409180e-01
6.0077756643295277e-01
5.9377032518386841e-01
4.8081064224243159e-01
4.8915994167327881e-01
4.9681904911994940e-01
4.8653489351272577e-01
4.7597745060920721e-01
4.8405730724334722e-01
5.0733917951583862e-01
5.1353865861892700e-01
5.0625514984130859e-01
6.0741274228280151e-01
6.9015020531892446e-01
6.1330986022949219e-01
6.1996561288833618e-01
6.0358190536499023e-01
5.8855497837066661e-01
5.9767806529998779e-01
6.7989259958267223e-01
6.6707551479339600e-01
6.6114640235900879e-01
6.6477125883102417e-01
6.5934610366821278e-01
6.5256577730178844e-01
6.3989627361297596e-01
6.2558102607727062e-01
6.2217313051223755e-01
6.1849296092987061e-01
6.1452198028564464e-01
6.1036539077758778e-01
6.0540056228637695e-01
5.9998500347137462e-01
5.9465557336807262e-01
5.8883905410766602e-01
5.8241963386535645e-01
5.7544392347335815e-01
5.6816017627716064e-01
5.6105458736419678e-01
5.5426889657974243e-01
5.4780101776123036e-01
5.4168218374252319e-01
5.4574143886566162e-01
5.4964292049407959e-01
5.4402679204940796e-01
5.3924793004989624e-01
5.4202282428741455e-01
5.4514479637145996e-01
5.4130125045776356e-01
5.3771024942398082e-01
5.3442299365997314e-01
5.3137356042861938e-01
5.2853471040725697e-01
5.2591884136199962e-01
5.2351528406143177e-01
5.2133381366729736e-01
5.1920044422149658e-01
5.1735579967498779e-01
5.1590538024902344e-01
5.1456046104431163e-01
5.1341938972473145e-01
5.1248031854629517e-01
5.1235222816467285e-01
5.1375848054885864e-01
5.1608258485794056e-01
5.1869690418243397e-01
5.2160865068435658e-01
5.2486366033554077e-01
5.2890163660049438e-01
5.3335040807723999e-01
5.3779852390289296e-01
5.4260522127151478e-01
5.4778218269348145e-01
5.5338203907012939e-01
5.5941140651702881e-01
5.6585526466369618e-01
5.7269918918609619e-01
5.7988190650939941e-01
5.7681769132614136e-01
5.7408690452575684e-01
5.8227276802062977e-01
5.9161984920501698e-01
5.8711504936218262e-01
5.8196306228637695e-01
5.9103620052337635e-01
6.0027152299880981e-01
6.0974764823913585e-01
6.1935657262802124e-01
6.2876462936401356e-01
6.3724583387374878e-01
6.4433205127716064e-01
6.5016043186187744e-01
6.5481460094451904e-01
6.5859258174896240e-01
6.6132616996765137e-01
6.6293793916702282e-01
6.6391384601593018e-01
6.6438722610473644e-01
6.6438615322113037e-01
6.7878878116607655e-01
6.9079220294952404e-01
6.9443559646606445e-01
6.9655376672744762e-01
6.8708920478820801e-01
6.8960934877395619e-01
7.0077574253082275e-01
6.0256683826446544e-01
5.9109097719192505e-01
6.0611003637313843e-01
6.2268424034118663e-01
6.1460155248641957e-01
6.9032780057279386e-01
7.5274768707098139e-01
7.5325095653533936e-01
7.4288940429687500e-01
7.3322123289108276e-01
7.3758023977279663e-01
7.4178481101989735e-01
7.3224431276321422e-01
7.2225588560104381e-01
7.2456371784210205e-01
7.2025746107101440e-01
7.0731902122497559e-01
6.9903141260147095e-01
6.9629806280136097e-01
6.9195437431335438e-01
6.8742823600769043e-01
6.8270701169967662e-01
6.7203211784362804e-01
6.6112309694290161e-01
6.5557223558425903e-01
6.4993470907211304e-01
6.4428514242172241e-01
6.3824033737182617e-01
6.3170534372329723e-01
6.3049465417861938e-01
6.2914407253265381e-01
6.2234061956405640e-01
6.1584967374801636e-01
6.0967659950256337e-01
6.0384798049926758e-01
5.9833592176437378e-01
5.9268635511398315e-01
5.8737647533416737e-01
5.8290344476699818e-01
5.8600687980651855e-01
5.8949404954910278e-01
5.9167224168777455e-01
5.9416633844375621e-01
5.9138226509094238e-01
5.8884572982788075e-01
5.8653712272644043e-01
5.8449703454971325e-01
5.8271157741546642e-01
5.8117353916168224e-01
5.7980179786682118e-01
5.7871520519256603e-01
5.7794964313507080e-01
5.7734179496765137e-01
5.7698094844818115e-01
5.7688015699386597e-01
5.7760363817214955e-01
5.7984244823455822e-01
5.8304387331008922e-01
5.8658993244171143e-01
5.9044522047042836e-01
5.9465289115905762e-01
5.9975498914718617e-01
6.0526424646377563e-01
6.1069440841674805e-01
6.1650294065475464e-01
6.2270307540893555e-01
6.2931811809539795e-01
6.3632690906524658e-01
6.4371532201766957e-01
6.4325636625289917e-01
6.4304500818252563e-01
6.4066410064697255e-01
6.3855063915252686e-01
6.4729946851730336e-01
6.5714013576507557e-01
6.6715627908706665e-01
6.7656928300857544e-01
6.8607664108276356e-01
6.9559168815612804e-01
7.0523685216903675e-01
7.1484512090682983e-01
7.1485680341720581e-01
7.1396040916442882e-01
7.2100496292114258e-01
7.2680163383483876e-01
7.3141849040985096e-01
7.3503684997558605e-01
7.3772776126861583e-01
7.4830210208892822e-01
7.5807011127471924e-01
7.5838959217071544e-01
7.5821101665496815e-01
7.5752460956573475e-01
7.5468558073043823e-01
7.5876045227050781e-01
7.6904588937759399e-01
7.6787286996841442e-01
7.5831335783004761e-01
7.6416712999343883e-01
7.6966202259063721e-01
7.5892412662506104e-01
7.4867987632751465e-01
7.5410121679306041e-01
7.6034379005432118e-01
7.5291571207189401e-01
7.9984837666183506e-01
7.9793602228164684e-01
7.8922486305236816e-01
7.8103423118591297e-01
7.8329479694366455e-01
7.8121125698089600e-01
7.7322638034820557e-01
7.6896971464157104e-01
7.6509189605712902e-01
7.5492006540298462e-01
7.4841600656509399e-01
7.4653875827789296e-01
7.3837220668792725e-01
7.2894179821014404e-01
7.2383189201354980e-01
7.1861201524734497e-01
7.0751851797103882e-01
6.9597208499908436e-01
6.9012677669525135e-01
6.8455886840820324e-01
6.7879498004913341e-01
6.7273104190826416e-01
6.6630387306213379e-01
6.6530269384384155e-01
6.6423296928405762e-01
6.5772265195846558e-01
6.5597385168075562e-01
6.5459394454956055e-01
6.4918303489685059e-01
6.4410221576690685e-01
6.3891816139221203e-01
6.3407850265502919e-01
6.3006889820098877e-01
6.2640464305877686e-01
6.2307476997375477e-01
6.2565696239471436e-01
6.3307368755340576e-01
6.3529765605926525e-01
6.3330858945846558e-01
6.3156020641326904e-01
6.3013017177581776e-01
6.2899088859558105e-01
6.2812411785125744e-01
6.2750476598739624e-01
6.2716311216354381e-01
6.2708699703216564e-01
6.2722522020339955e-01
6.2766367197036743e-01
6.2839108705520619e-01
6.2992113828659058e-01
6.3291996717453003e-01
6.3688486814498901e-01
6.4121299982070923e-01
6.4586424827575684e-01
6.5086990594863903e-01
6.5681737661361705e-01
6.6314721107482921e-01
6.6931533813476562e-01
6.7585825920104980e-01
6.8277949094772339e-01
6.9005984067916881e-01
6.9764328002929676e-01
6.9910413026809703e-01
6.9266027212142944e-01
6.9283312559127797e-01
7.0138907432556163e-01
7.1020889282226562e-01
7.1924579143524159e-01
7.2923314571380615e-01
7.3929470777511597e-01
7.4861687421798695e-01
7.5786823034286499e-01
7.6002621650695801e-01
7.6227110624313354e-01
7.7144527435302745e-01
7.7094912528991699e-01
7.6955437660217285e-01
7.7617555856704723e-01
7.8159987926483165e-01
7.8589820861816395e-01
7.8914201259613037e-01
7.9161822795867920e-01
8.0214494466781616e-01
8.1177997589111317e-01
8.1197965145111084e-01
8.1169283390045155e-01
8.1710469722747803e-01
8.2065004110336304e-01
8.1476485729217518e-01
8.1517064571380615e-01
8.2031965255737305e-01
8.1719082593917836e-01
8.1455790996551525e-01
8.1660419702529896e-01
8.1175357103347778e-01
8.0217462778091442e-01
8.0438679456710815e-01
8.0726641416549683e-01
7.9999875428453249e-01
8.3562808015596746e-01
8.3177995681762695e-01
8.2405674457550038e-01
8.1671309471130382e-01
8.1731218099594116e-01
8.1040251255035400e-01
8.0323165655136097e-01
8.0299568176269542e-01
7.9447668790817261e-01
7.8552067279815685e-01
7.8349208831787098e-01
7.7720868587493896e-01
7.6509451866149902e-01
7.5527346134185802e-01
7.4983757734298695e-01
7.4435973167419445e-01
7.3884743452072144e-01
7.3287677764892578e-01
7.2684717178344715e-01
7.2117960453033436e-01
7.1542108058929443e-01
7.0945876836776745e-01
7.0322561264038075e-01
6.9679284095764160e-01
6.9032639265060425e-01
6.8412840366363525e-01
6.8269246816635143e-01
6.8517428636550903e-01
6.8370866775512695e-01
6.7907750606536865e-01
6.7438298463821422e-01
6.7005711793899536e-01
6.6651606559753418e-01
6.6333341598510742e-01
6.6048622131347656e-01
6.5793091058731079e-01
6.6018080711364735e-01
6.6660016775131214e-01
6.6885912418365479e-01
6.6766470670700084e-01
6.6681814193725575e-01
6.6628175973892223e-01
6.6603398323059082e-01
6.6607302427291881e-01
6.6639715433120716e-01
6.6696953773498535e-01
6.6779500246047985e-01
6.6894090175628662e-01
6.7037445306777965e-01
6.7260360717773438e-01
6.7624342441558838e-01
6.8079894781112682e-01
6.8571466207504284e-01
6.9097125530242920e-01
6.9658058881759644e-01
7.0314288139343262e-01
7.1006834506988525e-01
7.1673899888992298e-01
7.2374665737152100e-01
7.3108583688735962e-01
7.3870754241943359e-01
7.4140489101409923e-01
7.3789674043655396e-01
7.3979139328002919e-01
7.4829095602035522e-01
7.5694978237152100e-01
7.6574647426605225e-01
7.7461481094360363e-01
7.8433167934417725e-01
7.9403287172317505e-01
8.0287301540374756e-01
8.0624890327453624e-01
8.0255806446075439e-01
8.0423724651336659e-01
8.1277817487716675e-01
8.2087206840515137e-01
8.2802224159240723e-01
8.3395195007324219e-01
8.3881545066833496e-01
8.4266120195388805e-01
8.4553378820419323e-01
8.4770137071609497e-01
8.4908908605575562e-01
8.4967970848083496e-01
8.4979057312011719e-01
8.4943395853042603e-01
8.5477817058563244e-01
8.6299449205398560e-01
8.6226278543472301e-01
8.5585021972656239e-01
8.5827672481536865e-01
8.6008846759796143e-01
8.5150820016860962e-01
8.5140925645828236e-01
8.5116446018219005e-01
8.4224927425384521e-01
8.4229052066802979e-01
8.4283816814422596e-01
8.3575830736150303e-01
8.6333327584164421e-01
8.5800558328628540e-01
8.5086548328399658e-01
8.4400582313537598e-01
8.4335857629776001e-01
8.3687907457351685e-01
8.3013200759887695e-01
8.2611250877380382e-01
8.1827199459075917e-01
8.1263589859008778e-01
8.0706214904785156e-01
7.9746890068054199e-01
7.8939163684844982e-01
7.8368246555328358e-01
7.7797549962997437e-01
7.7227008342742920e-01
7.6660525798797596e-01
7.6055842638015736e-01
7.5164300203323364e-01
7.4313431978225697e-01
7.3744416236877441e-01
7.3456001281738281e-01
7.3150116205215465e-01
7.2539424896240245e-01
7.1931892633438121e-01
7.1352517604827881e-01
7.0805269479751576e-01
7.0646893978118896e-01
7.0830082893371582e-01
7.0683741569519043e-01
7.0261305570602417e-01
6.9896185398101796e-01
6.9586455821990956e-01
6.9311767816543579e-01
6.9071191549301136e-01
6.8861371278762817e-01
6.8684220314025879e-01
6.9235730171203624e-01
6.9823902845382702e-01
6.9756460189819336e-01
6.9724255800247203e-01
6.9723516702651978e-01
6.9751679897308339e-01
6.9813072681427002e-01
6.9904273748397816e-01
7.0019012689590465e-01
7.0160698890686035e-01
7.0332664251327515e-01
7.0534235239028942e-01
7.0814990997314464e-01
7.1228867769241344e-01
7.1727710962295543e-01
7.2261476516723644e-01
7.2829365730285645e-01
7.3431533575057983e-01
7.4129951000213623e-01
7.4860852956771862e-01
7.5557816028594982e-01
7.6283967494964600e-01
7.7035593986511242e-01
7.7807575464248657e-01
7.7663815021514904e-01
7.7538049221038818e-01
7.8365540504455555e-01
7.9204195737838745e-01
8.0051362514495839e-01
8.0902737379074097e-01
8.1750786304473877e-01
8.2634991407394398e-01
8.3550393581390381e-01
8.3997797966003418e-01
8.3861356973648082e-01
8.4135818481445324e-01
8.4931939840316784e-01
8.5700166225433339e-01
8.6423027515411377e-01
8.7058240175247203e-01
8.7176072597503662e-01
8.7204599380493164e-01
8.7554478645324696e-01
8.8212054967880238e-01
8.8800781965255737e-01
8.8917613029479980e-01
8.8963985443115245e-01
8.8964354991912842e-01
8.8918250799179077e-01
8.8826078176498424e-01
8.9040648937225342e-01
8.9358472824096680e-01
8.9123970270156860e-01
8.8876926898956299e-01
8.8888323307037365e-01
8.8424855470657338e-01
8.8282310962677002e-01
8.8116592168807983e-01
8.7562584877014160e-01
8.7420773506164562e-01
8.7034833431243896e-01
8.6344369534478838e-01
8.8739406974764845e-01
8.7884908914566040e-01
8.7414622306823742e-01
8.6756944656372081e-01
8.6390626430511475e-01
8.5766208171844482e-01
8.5116422176361084e-01
8.4420228004455555e-01
8.3679747581481945e-01
8.3155173063278198e-01
8.2323271036148082e-01
8.1653666496276855e-01
8.1153917312622081e-01
8.0569034814834595e-01
7.9986888170242298e-01
7.9179310798645020e-01
7.8351879119873036e-01
7.7745926380157482e-01
7.6885408163070679e-01
7.6044404506683339e-01
7.5487732887268055e-01
7.5216424465179443e-01
7.4932968616485596e-01
7.4598908424377441e-01
7.4274420738220215e-01
7.3730450868606556e-01
7.3221683502197255e-01
7.2749489545822144e-01
7.2611570358276356e-01
7.2737139463424683e-01
7.2612553834915161e-01
7.2307723760604858e-01
7.2037649154663075e-01
7.1802771091461182e-01
7.1602886915206898e-01
7.1435183286666881e-01
7.1300083398818959e-01
7.1792685985565186e-01
7.2325253486633301e-01
7.2303795814514160e-01
7.2316586971282959e-01
7.2360342741012584e-01
7.2438627481460582e-01
7.2550201416015625e-01
7.2686976194381725e-01
7.2849345207214355e-01
7.3037731647491455e-01
7.3560625314712524e-01
7.4119216203689575e-01
7.4453383684158325e-01
7.4911105632781982e-01
7.5127863883972157e-01
7.5375127792358398e-01
7.5970941781997681e-01
7.6597857475280762e-01
7.7287065982818604e-01
7.8039336204528797e-01
7.8784930706024159e-01
7.9519325494766235e-01
8.0271852016448975e-01
8.1037789583206177e-01
8.1051427125930775e-01
8.1081283092498779e-01
8.1889808177947998e-01
8.2702994346618663e-01
8.3515191078186035e-01
8.4324932098388683e-01
8.5127145051956177e-01
8.5917633771896362e-01
8.6436849832534801e-01
8.6531502008438121e-01
8.6873620748519897e-01
8.7613499164581299e-01
8.8332366943359375e-01
8.9021182060241699e-01
8.9343637228012085e-01
8.9594793319702137e-01
8.9669388532638539e-01
8.9661180973052979e-01
8.9981180429458618e-01
9.0615755319595337e-01
9.1181641817092896e-01
9.1285985708236705e-01
9.1624468564987183e-01
9.1911429166793823e-01
9.1856950521469116e-01
9.1760903596878063e-01
9.1538459062576305e-01
9.1441130638122559e-01
9.1523087024688721e-01
9.1187620162963856e-01
9.1092509031295776e-01
9.0940517187118541e-01
9.0712451934814464e-01
9.0455764532089245e-01
9.0175044536590576e-01
8.9934825897216797e-01
8.9213061332702637e-01
8.8749513519334866e-01
9.0697784082651167e-01
8.9582943916320801e-01
8.9309984445571899e-01
8.8670635223388683e-01
8.8060331344604503e-01
8.7449896335601796e-01
8.6816692352294922e-01
8.6144185066223145e-01
8.5432541370391835e-01
8.4676009416580200e-01
8.3890408277511597e-01
8.3454746007919323e-01
8.2938253879547119e-01
8.2156789302825917e-01
8.1380110979080200e-01
8.0573612451553345e-01
7.9722630977630615e-01
7.9121094942092896e-01
7.8582406044006337e-01
7.8043055534362804e-01
7.7508211135864258e-01
7.6967078447341919e-01
7.6413077116012584e-01
7.6102715730667125e-01
7.6023769378662098e-01
7.5730478763580322e-01
7.5257623195648204e-01
7.4821579456329335e-01
7.4421882629394542e-01
7.4283468723297119e-01
7.4420702457427979e-01
7.4378716945648204e-01
7.4143564701080322e-01
7.3944640159606945e-01
7.3781687021255504e-01
7.3651790618896484e-01
7.3552262783050537e-01
7.4008828401565563e-01
7.4508070945739735e-01
7.4525970220565796e-01
7.4576246738433838e-01
7.4655693769454956e-01
7.4777621030807495e-01
7.4931120872497559e-01
7.5103521347045898e-01
7.5303131341934204e-01
7.5790905952453624e-01
7.6618480682373036e-01
7.7222824096679676e-01
7.7598929405212402e-01
7.8088587522506725e-01
7.8330451250076305e-01
7.8321540355682384e-01
7.8656268119812023e-01
7.9294979572296143e-01
7.9959315061569225e-01
8.0718547105789185e-01
8.1500524282455444e-01
8.2230460643768322e-01
8.2972705364227295e-01
8.3721888065338135e-01
8.3842545747756958e-01
8.3977699279785156e-01
8.4758603572845459e-01
8.5537815093994141e-01
8.6307919025421143e-01
8.7070554494857777e-01
8.7824887037277222e-01
8.8287341594696045e-01
8.8475650548934937e-01
8.8933902978897095e-01
8.9636003971099865e-01
9.0311110019683838e-01
9.0961438417434703e-01
9.1321587562561035e-01
9.1325271129608165e-01
9.1532450914382935e-01
9.1978693008422863e-01
9.2343282699584961e-01
9.2630136013030995e-01
9.2842006683349598e-01
9.2989623546600342e-01
9.3083876371383656e-01
9.3418669700622559e-01
9.3699598312377919e-01
9.3871778249740601e-01
9.4003927707672119e-01
9.3792521953582764e-01
9.3385165929794323e-01
9.3378615379333496e-01
9.3304294347763062e-01
9.3143308162689198e-01
9.2925238609313965e-01
9.2642086744308483e-01
9.2326617240905762e-01
9.1991019248962402e-01
9.1682749986648560e-01
9.0978717803955078e-01
9.0706123965402208e-01
9.2117252795001003e-01
9.0998941659927357e-01
9.0682160854339600e-01
9.0055477619171143e-01
8.9453423023223877e-01
8.8852107524871815e-01
8.8230967521667480e-01
8.7576335668563843e-01
8.6887395381927501e-01
8.6160647869110096e-01
8.5409879684448242e-01
8.4787881374359142e-01
8.4099280834197998e-01
8.3318328857421875e-01
8.2545244693756104e-01
8.1974291801452637e-01
8.1363630294799805e-01
8.0775064229965199e-01
8.0251276493072499e-01
7.9730951786041260e-01
7.9218083620071422e-01
7.8702306747436523e-01
7.8176003694534302e-01
7.7643924951553345e-01
7.7341389656066895e-01
7.7271920442581177e-01
7.7025789022445679e-01
7.6620572805404663e-01
7.6252329349517822e-01
7.5890731811523438e-01
7.6007413864135742e-01
7.6199394464492798e-01
7.5996279716491699e-01
7.5829815864562977e-01
7.5699394941329956e-01
7.5601333379745483e-01
7.5750219821929943e-01
7.6183593273162842e-01
7.6443010568618786e-01
7.6493293046951305e-01
7.6573961973190297e-01
7.6682585477828979e-01
7.6837766170501698e-01
7.7025699615478516e-01
7.7228111028671265e-01
7.7688139677047718e-01
7.8440058231353760e-01
7.8998798131942738e-01
7.9330700635910045e-01
7.9730355739593495e-01
8.0234968662261963e-01
8.0806404352188121e-01
8.1125879287719715e-01
8.1222963333129883e-01
8.1619620323181163e-01
8.2282280921936035e-01
8.3035469055175781e-01
8.3808004856109619e-01
8.4524798393249523e-01
8.5248154401779175e-01
8.5973298549652100e-01
8.6411201953887939e-01
8.6619669198989857e-01
8.7125360965728760e-01
8.7864327430725098e-01
8.8590669631957997e-01
8.9307248592376698e-01
9.0014231204986583e-01
9.0200608968734741e-01
9.0445005893707275e-01
9.1183888912200917e-01
9.1829991340637196e-01
9.2449009418487538e-01
9.2825883626937855e-01
9.2920166254043579e-01
9.3205475807189941e-01
9.3690472841262817e-01
9.4092714786529541e-01
9.4422113895416260e-01