/*--------------------------------*- C++ -*----------------------------------*\
| =========                 |                                                 |
| \\      /  F ield         | OpenFOAM: The Open Source CFD Toolbox           |
|  \\    /   O peration     | Version:  v1812                                 |
|   \\  /    A nd           | Web:      www.OpenFOAM.com                      |
|    \\/     M anipulation  |                                                 |
\*---------------------------------------------------------------------------*/
FoamFile
{
    version     2.0;
    format      ascii;
    class       volScalarField;
    location    "0";
    object      Cx;
}
// * * * * * * * * * * * * * * * * * * * * * * * * * * * * * * * * * * * * * //

dimensions      [0 1 0 0 0 0 0];


internalField   nonuniform List<scalar> 
14751
(
8.954546133954754
8.863635946557393
8.772726971594178
8.681818014430785
8.590909030448447
8.499999887976928
8.409090746119441
8.318181803887697
8.227272712181147
8.136363602749999
8.045454508574869
7.954545991113297
7.863636939009888
7.772727615514801
7.681818510921722
7.590909204886688
7.500000104669636
7.409091016029372
7.318181926244571
7.227272450146505
7.136363356508476
7.045454252149415
6.954545154723924
6.863635607906207
6.772726432141083
6.681817627162128
6.590908552842199
6.499999853039738
6.409090765790695
6.318181680435162
6.22727259343608
6.13636351022393
6.045454424868214
5.95454533761901
5.863636248226396
5.772727486647199
5.681818399655197
5.590909325668364
5.500000240070907
5.409091627920507
5.31818266335515
5.227273281595576
5.136364170405815
5.045454623245737
4.954545533996699
4.863636442603254
4.772727354748594
4.681818257171778
4.590909169067038
4.50000007906787
4.409090986924205
4.318181741325795
4.227272649432127
4.136363559682963
4.045454471828221
3.954545374501405
3.863636287146745
3.772727196003301
3.681818106754261
3.590908567421002
3.499999458874186
3.409090075968322
3.318181109758106
3.227272494071648
3.136363410617615
3.045454334737112
2.954545249888407
2.863636424434219
2.772727337684266
2.681818251184314
2.590909164434361
2.500000079827852
2.409090991184461
2.318181904184507
2.227272819078014
2.136363738258463
2.045454649615084
1.954545562115166
1.863636471721763
1.772727385508809
1.681818287828416
1.590909194471974
1.500000097578536
1.409091134125523
1.318182039522209
1.22727295045626
1.136363851066018
1.045454957342006
0.9545458719413824
0.8636369935546124
0.7727278026407489
0.6818181410484583
0.5909090414368807
0.4999999304679515
0.409090856784051
0.3181816795862189
0.2272726136533559
0.1363634588243411
0.04545431630986752
8.954549720880284
8.863626718136564
8.772712075375495
8.681794949057085
8.590881519049535
8.499969376823765
8.409055008748778
8.318141702693403
8.227228741809654
8.136316459285313
8.045404586180659
7.954493406981596
7.86358212544664
7.772671063380177
7.681760631537355
7.590850636542773
7.49994187632205
7.409033800488215
7.318126597805343
7.227219723363413
7.136313435385265
7.045407295304909
6.954501150166719
6.863594735533094
6.772688393610327
6.681781971384162
6.590875417409665
6.499968893789478
6.409062116174641
6.318155222150605
6.22724822232946
6.136341111421002
6.045433892039186
5.954526572366154
5.863619158632447
5.772711793517818
5.681804194642313
5.590896511557409
5.499988746563295
5.40908107206882
5.318173167408073
5.227265174644044
5.136357165220893
5.045448924949649
4.95454083062223
4.863632707540366
4.772724545984323
4.681816379403509
4.590908186794685
4.499999993540771
4.409091806471199
4.318183540741001
4.227275369924157
4.136367218600898
4.045459082715562
3.954550991164286
3.863642925574757
3.772734914397255
3.681826951182723
3.590918865173231
3.500011027703175
3.409103222695422
3.318195525085944
3.2272880747964
3.136380552496676
3.045473129313228
2.954565801698022
2.863658694667242
2.772751586683142
2.681844576918444
2.590937690642154
2.500030901806833
2.409124242150551
2.318217683178351
2.227311214006286
2.136404853724713
2.045498627507715
1.954592457163272
1.863686428497218
1.772780144038099
1.681873706363375
1.590966502566771
1.500058624785366
1.409149833409667
1.318240077262487
1.227329581659757
1.136418636222818
1.04550737127744
0.9545959043012442
0.8636840531365683
0.7727719021142994
0.6818586329942883
0.5909446542757483
0.5000309199371407
0.4091166404314724
0.318204282319307
0.2272903041913596
0.1363746354497376
0.04545454799516151
8.954552688228677
8.863621376006812
8.772706390854404
8.681787558878458
8.590871589147847
8.499953799091871
8.409029359285256
8.318105152217589
8.227181769623579
8.136260292476289
8.045340085820076
7.954421062548667
7.863502096082573
7.772583735613597
7.681667109789216
7.590752623451776
7.499841874123552
7.40893412093536
7.318029439334659
7.22712677230382
7.136225750140529
7.045325285714367
6.954424709312921
6.863523673154648
6.77262242431571
6.681720766606352
6.590818788717614
6.499916531040526
6.409013853023441
6.318110825294728
6.227207467693712
6.136303774276931
6.045399776104568
5.954495471917913
5.863590891202279
5.772686135911327
5.681781030081269
5.590875693686145
5.499970129257283
5.409064461966069
5.318158486361907
5.227252416329091
5.136346184257937
5.045439718737037
4.954533246342348
4.863626694187304
4.772720055069597
4.681813381780453
4.590906656123004
4.499999924476723
4.409093189485963
4.318186422325441
4.227279741709348
4.136373113186962
4.04546654245133
3.954560074586189
3.863653691542285
3.772747450173135
3.681841342250732
3.590935290581559
3.500029527645933
3.409123983142998
3.318218589009212
3.227313549174314
3.136408670516253
3.045504069816862
2.954599745617496
2.863695801220578
2.772792102987063
2.681888724186226
2.590985697047999
2.500082994133526
2.409180663250954
2.318278673866559
2.227377009807754
2.136475695576601
2.045574788776593
1.954674162428215
1.863773906583864
1.772872980665725
1.681971032330899
1.591066581536743
1.500159422880104
1.409248846365039
1.318334913009774
1.227418336886611
1.136500204826358
1.045581219079672
0.9546619529172869
0.8637417948951384
0.7728207013788916
0.6818971458456139
0.5909718794135097
0.5000481700470278
0.4091262635726742
0.3182115889535297
0.2272974371761426
0.1363807983230618
0.0454544677287502
8.954554033297466
8.863619304595044
8.772707824161401
8.681791787973399
8.59087462452055
8.499948974284431
8.409010413286872
8.318069950813291
8.227130607798188
8.136194746946455
8.045261315606997
7.954329473178529
7.863397897052173
7.772467332376656
7.681540017643237
7.590617552419222
7.499702508954359
7.408794213514204
7.317892414583431
7.226995369088598
7.136101686841457
7.045209250881826
6.954316565804334
6.863423187426779
6.772529101508091
6.681634223778969
6.590738739361122
6.499842511814707
6.408945637480151
6.318048085733075
6.227149883716828
6.136251032930598
6.045351586835416
5.954451555800283
5.863550984945543
5.772649907448407
5.681748331757574
5.590846306286581
5.49994385928628
5.409040989116704
5.318137810923708
5.227234416434726
5.136330684129161
5.045426729586107
4.954522552622363
4.86361821830363
4.772713723468399
4.681809160039052
4.590904503725966
4.499999828101849
4.409095152487981
4.318190484890646
4.227285910692594
4.136381428212704
4.045477065872104
3.954572890738718
3.863668888339393
3.772765140881877
3.681861654155018
3.590958489231883
3.500055653404883
3.409153259722822
3.318251186616285
3.227349524156795
3.136448388559844
3.045547777885098
2.954647712113625
2.863748233881343
2.772849369144142
2.681951124645834
2.591053561650825
2.500156645297066
2.409260447603284
2.318364934447251
2.227470086279147
2.136575934420307
2.045682553146591
1.954789795210001
1.863897657466122
1.773004254762104
1.682108264939294
1.591207123991721
1.500300001976702
1.409385578357367
1.318464096048886
1.22753711086914
1.136606920230754
1.045675250025706
0.9547433574421076
0.8638100682770185
0.7728748777311005
0.6819356827151182
0.5909937553580963
0.500055625645049
0.4091240356828338
0.3182076872073779
0.2272969059113419
0.1363834384769479
0.04545458710821241
8.954554713061043
8.863619213206546
8.772714179850796
8.681804695944507
8.59088737391407
8.499951980917983
8.408995928565064
8.318034642586669
8.227074679098845
8.136120036282698
8.045169200855957
7.954220527081585
7.863272022584545
7.772324902852406
7.681382963703284
7.590449295809355
7.499527865414533
7.408618166908289
7.317719450986899
7.226829048159861
7.135944436529514
7.04506203554728
6.954179235472458
6.863295296058145
6.772410237652739
6.681523985428853
6.590636686870122
6.499748232720461
6.408858704251729
6.317968088985012
6.227076425044032
6.136183728411618
6.045290066026494
5.954395465338167
5.863499995079297
5.772603712390668
5.681706633972543
5.590808834893012
5.499910367185466
5.409011269780748
5.31811163787721
5.227211591075508
5.136311053252762
5.045410145417352
4.954508900742236
4.863607397902068
4.772705655855916
4.681803783481724
4.59090177671415
4.499999730692544
4.409097684072691
4.318195669584605
4.227293778815468
4.136392047806567
4.045490510505783
3.954589259820463
3.863688303822697
3.772787742667033
3.681887606447486
3.590987961138742
3.500088862982751
3.409190417385569
3.318292560196866
3.227395398947784
3.136499038660083
3.045603508647697
2.954708854738791
2.863815145260726
2.772922411105713
2.682030684328815
2.591140037415363
2.500250447568107
2.409362001624683
2.318474660690071
2.227588410262078
2.136703275447691
2.045819336542027
1.95493645340207
1.864054444146626
1.773170381132309
1.682281542344779
1.591384091164674
1.500476295555987
1.409556173527612
1.318624133251728
1.227682903630695
1.136736395073099
1.045787824800076
0.9548391241511978
0.8638886077557518
0.7729349942145838
0.681975406971845
0.5910123224954124
0.5000560645009184
0.4091130397515529
0.3181954006333009
0.2272907132532807
0.1363835087862662
0.04545458020067598
8.954555038672341
8.863620396015779
8.772724086446651
8.681824220702934
8.590907500841759
8.499960756423041
8.408984375052382
8.317998478761192
8.227013961544817
8.136036789933112
8.045064984727473
7.954095811834847
7.863126682795478
7.772159322151425
7.68119934469402
7.590251781622505
7.499322122242614
7.40841023812352
7.317514745151237
7.226631953521715
7.135757875036489
7.044887215567381
6.954016017431829
6.863143208522152
6.772268795357986
6.6813927148659
6.590515085975977
6.499635776177422
6.408754954875493
6.317872567751968
6.226988668483624
6.136103287295566
6.045216505460517
5.954328375604019
5.863438984976686
5.772548385126891
5.681656672984276
5.590763927023389
5.499870213939701
5.408975585784521
5.318080199338515
5.227184162556131
5.136287458383932
5.045390249340898
4.954492522533901
4.863594412444967
4.772695972451293
4.681797325720538
4.590898500340226
4.499999609226415
4.409100719135454
4.318201892151351
4.227303228292741
4.136404788719074
4.045506640910795
3.954608900336885
3.863711590875349
3.772814848083335
3.681918720858927
3.591023346751686
3.500128718458413
3.409235000705571
3.318342177535634
3.227450349478249
3.136559682616396
3.045670214193098
2.954782010333486
2.863895132791948
2.773009689176013
2.682125699475107
2.591243261976755
2.500362352186385
2.409483075434204
2.318605398525638
2.227729293069963
2.136854782202738
2.045981952525383
1.955110656689178
1.864240489616186
1.773367298396446
1.682486607555108
1.591593129984116
1.500684009219054
1.409756515274615
1.318811299269991
1.227852519129874
1.136886024937763
1.04591685234041
0.9549477561610156
0.8639764749985395
0.7730007549397322
0.682016948645933
0.5910289141570473
0.5000514218209433
0.4090954463926041
0.3181768174614011
0.2272803397422202
0.1363817950368317
0.04545457078545725
8.954555081997839
8.863622856276555
8.772737077935641
8.681848708910634
8.590933165842328
8.499973767667406
8.408974605686927
8.317960882393342
8.226948442809583
8.135945558700133
8.044949710624508
7.953956985891336
7.862964054902016
7.771973297970256
7.680992366835495
7.590028537410174
7.499089079928543
7.408174340095766
7.317282190563104
7.22640776558592
7.135545487887492
7.044688035610625
6.953829926186275
6.86296968190616
6.772107311667512
6.681242746139236
6.590376086242983
6.499507206380752
6.408636281817551
6.317763262889871
6.226888206499847
6.136011162396373
6.045132236526944
5.954251494865971
5.863369048828337
5.772484975035924
5.681599407832656
5.59071244016294
5.499824173559369
5.408934690434745
5.318044164848419
5.227152737110605
5.13626042373386
5.04536741773766
4.954473724445045
4.863579515177785
4.772684860013902
4.681789920920719
4.59089474684341
4.499999477215723
4.409104208160957
4.318209034550644
4.227314071193685
4.136419415377708
4.04552515611499
3.954631438287123
3.863738318474802
3.772845953800688
3.681954423977471
3.591063896424618
3.50017439139568
3.409286096450785
3.318399033515882
3.227513331522596
3.136629174096091
3.045746633028237
2.954865790341179
2.863986736655113
2.773109604524167
2.68223443176427
2.591361330937215
2.500490297603566
2.40962143306963
2.31875471530543
2.227890112835346
2.137027627256333
2.046167344488974
1.955309132682947
1.864452283128323
1.773591284037227
1.682719600764172
1.591830336445732
1.500919334234815
1.409983051059671
1.319022410921649
1.228043244379163
1.137053613506583
1.046060691898237
0.9550681294197788
0.8640730303235826
0.7730720358363908
0.6820606638485442
0.5910444319825787
0.5000430302190485
0.4090727685060555
0.3181533211751357
0.2272667151721003
0.1363787193463196
0.04545458121905065
8.954554763887861
8.863625773594528
8.772751980306085
8.681877488308309
8.590963532586985
8.499990202544712
8.408966104838639
8.317921637492635
8.226878332619309
8.135846917742816
8.044824353507822
7.953805364796475
7.862785878665563
7.771768950591561
7.680764536133921
7.589782432667474
7.498831824033522
7.407913656046464
7.317024977186548
7.226159637495716
7.135310262815422
7.044467316155801
6.953623594946274
6.862777187513408
6.771928096140193
6.681076255125517
6.590221712239724
6.499364352238203
6.408504376914241
6.317641727141969
6.226776472987598
6.13590867435328
6.045038461653858
5.954165921331942
5.863291188609952
5.772414359886361
5.681535620053245
5.590655080735034
5.499772876886294
5.408889117542283
5.318004010357915
5.227117698655103
5.136230278244441
5.045341966468417
4.954452769642431
4.863562901824772
4.772672473062155
4.681781663234326
4.590890559209206
4.49999933031066
4.409108101064239
4.318216997198999
4.227326162668313
4.136435721568053
4.045545798052589
3.954656564305092
3.863768111438875
3.772880622213003
3.681994215870491
3.591109097627968
3.500225294824121
3.409343014896499
3.318462362803244
3.22758347309562
3.136706551591993
3.045831701068464
2.954959037074667
2.864088655133282
2.77322073622349
2.68235533399315
2.591492575712989
2.50063246608766
2.409775118108869
2.318920506571409
2.228068599515713
2.137219378585443
2.046372913718015
1.955529095828476
1.864686865636081
1.773839213203785
1.682977301836749
1.592092476755915
1.50117912258939
1.410232828739751
1.31925482602133
1.228252811426708
1.137237319002276
1.046217885328461
0.9551991721263422
0.8641776091987353
0.7731485812708577
0.6821067399827552
0.5910594660917413
0.5000318250101091
0.4090460855118563
0.31812594348702
0.2272505740571479
0.1363746405895674
0.04545457417792898
8.954553800897145
8.863629997314709
8.772769378852766
8.681909383124014
8.590997342870217
8.500009125310148
8.408958125324943
8.317880465594579
8.226803665998348
8.135741253758694
8.044689582340961
7.953641948000329
7.862593460687987
7.771547955596491
7.680517841691922
7.589515678196363
7.498552760085162
7.407630693130914
7.31674561739329
7.225889988852312
7.135054516055076
7.044227233680283
6.953399084267414
6.862567660433031
6.771732959040135
6.680894897094896
6.590053504125296
6.499208670592388
6.408360593890253
6.317509216770882
6.226654621409538
6.135796884019888
6.044936156614466
5.954072544428628
5.86320621733466
5.77233730032788
5.681466001500604
5.590592473993072
5.499716876893217
5.408839365528595
5.317960164237642
5.22707945909232
5.136197380847218
5.045314171694625
4.954429884387824
4.863544758932359
4.772658943168003
4.68177264735376
4.590885990381069
4.499999172824453
4.409112354958396
4.318225696429318
4.227339367051743
4.13645353012032
4.045568343383681
3.954684005953617
3.863800649243506
3.772918484673631
3.682037665853831
3.591158430551633
3.500280846724065
3.409405151467221
3.31853148680875
3.227660021531828
3.136790984307007
3.045924512659216
2.955060751090078
2.86419982564626
2.773341933661133
2.682487158351355
2.591635640567624
2.500787399431406
2.40994255538239
2.319101085113199
2.228262946691675
2.137428097811304
2.046596601697543
1.955768352610233
1.864941912069163
1.774108648095424
1.683257209424017
1.592377048216317
1.501460957868092
1.410503600863978
1.319506547491755
1.228479526156073
1.137435761951605
1.046387388499556
0.955340135690355
0.864289727222878
0.7732301960631438
0.68215528888664
0.5910744307849888
0.5000184459609475
0.4090161338133516
0.3180953604781914
0.2272323585521245
0.1363697713648826
0.04545457987336234
8.954552272747824
8.863634484578862
8.772788092790908
8.681944433540648
8.591034527726666
8.500030346126129
8.408950633346722
8.317837319056755
8.226724617717744
8.135628909936999
8.044545946248896
7.953467508854685
7.862387799765576
7.771311516959246
7.680253709842703
7.589229905710748
7.498253652658899
7.407327285762229
7.316445965291354
7.225600663506823
7.134780017737823
7.043969462973139
6.953157960133719
6.862342559809724
6.771523270740415
6.680699974149864
6.589872672672912
6.499041287684259
6.408205975490574
6.317366695735795
6.226523543564763
6.135676612008054
6.044826073710255
5.953972059758351
5.863114765619437
5.772254351985285
5.681391057862482
5.590525069604059
5.499656586120165
5.408785806275301
5.317912967742184
5.227038290982425
5.136161962641685
5.045284236699591
4.954405236649427
4.863525221068726
4.772644373001285
4.681762933559861
4.590881068627206
4.49999900447516
4.40911693780378
4.318235064879295
4.227353590885785
4.136472712006667
4.045592624892143
3.954713560412179
3.863835689461067
3.772959257076697
3.682084455023789
3.591211537959145
3.500340647343382
3.40947203456478
3.318605885771014
3.227742417091715
3.136881858764407
3.046024397340823
2.955170200698626
2.864319433285537
2.773472311203635
2.682628941656451
2.591789491254449
2.500953988499393
2.410122547589769
2.319295165593132
2.228471779271238
2.137652326592002
2.046836848807549
1.956025252788192
1.865215675309563
1.774397756645927
1.683557449622115
1.592682183483871
1.501763036951552
1.410793689453689
1.319776079292728
1.228722116088672
1.137647905705345
1.046568394732885
0.955490434288894
0.8644090174243333
0.7733167343165825
0.6822063681314178
0.5910895887817188
0.5000033483649005
0.4089834316424813
0.3180620777494603
0.2272124130150814
0.1363642715250671
0.0454545670057323
8.954550315298427
8.863640149484475
8.772808942177141
8.681981675113942
8.59107411813471
8.500053208562768
8.408943062729104
8.317792031143293
8.226641175678536
8.135510078366787
8.044393790006025
7.953282509891079
7.862169521687317
7.771060453217287
7.679973125670482
7.588926256151238
7.49793575443716
7.40700474380599
7.316127349139709
7.225292961506688
7.134488013939711
7.043695186938016
6.9529013454473
6.862102974335224
6.771300051938906
6.680492437877636
6.589680119377715
6.498863013572631
6.408041272507761
6.317214865939662
6.226383889038739
6.135548456904982
6.044708763022267
5.953864968491581
5.863017293676916
5.772165936259879
5.681311169499253
5.590453212960818
5.499592306045414
5.408728686838813
5.317862624209777
5.226994380279232
5.136124182128415
5.045252316814294
4.95437895520834
4.863504383769201
4.772628834288637
4.681752577311138
4.590875820523808
4.499998823397651
4.40912182547834
4.318245055592506
4.227368759844049
4.136493166740045
4.045618518522025
3.954745073167973
3.863873053378629
3.773002729604219
3.682134340948289
3.591268176244984
3.500404418883072
3.409543354456824
3.318685215932432
3.227830245881338
3.13697871863433
3.046130847374056
2.955286841674219
2.864446884109912
2.77361122096425
2.682779993819781
2.591953377098505
2.501131415496636
2.410314235076865
2.319501819959036
2.228694109400979
2.137891010126444
2.047092538231058
1.956298610517879
1.865506910282659
1.774705238965458
1.683876700389099
1.593006563721465
1.50208409478531
1.41110192728225
1.320062391701454
1.228979712279622
1.137873055053649
1.046760341189102
0.9556496545990519
0.8645352111872632
0.7734080643944625
0.6822600296245191
0.5911051407480435
0.4999868274422943
0.4089483307893894
0.3180264255997988
0.2271909640245963
0.1363582496516644
0.04545456973201308
8.954547713041441
8.863646236400694
8.772831090608936
8.682021415889789
8.591116333631737
8.500077781511422
8.408935540850317
8.317744587513822
8.226553420917549
8.1353848901355
8.044233333960841
7.953087301056244
7.861939086401148
7.770795315665164
7.67967675914185
7.58860547802875
7.497599892693986
7.406663938995787
7.315790656348869
7.224967767205102
7.134179355320019
7.043405217396959
6.952630005517379
6.861849601899128
6.771063961779194
6.680272914084163
6.589476416534355
6.498674409099285
6.407867011901381
6.317054208924458
6.226236103095624
6.135412831243195
6.044584610546671
5.953751622541343
5.862914121843321
5.77207234200299
5.681226596764451
5.590377141618334
5.499524254540786
5.408668216224857
5.317809329079102
5.226947894010357
5.136084185458568
5.045218520696939
4.954351125515118
4.86348231961223
4.772612382614327
4.681741609825531
4.590870262640297
4.499998632793746
4.409126997706966
4.318255637702727
4.227384819889569
4.136514826552925
4.045645934929968
3.954778441953334
3.863912614991327
3.773048757905626
3.6821871595104
3.591328134044155
3.500471927051906
3.409618852716421
3.318769186356414
3.227923221284954
3.13708124736743
3.046243522587301
2.955410290886339
2.864581764223269
2.77375822054114
2.682939826967149
2.592126777385979
2.501319131408835
2.410517010781327
2.319720412657982
2.228929259089104
2.138143424882783
2.047362906171357
1.956587620715323
1.865814765018613
1.775030210110224
1.68421406144488
1.593349299604661
1.502423284510651
1.411427535295587
1.32036480206521
1.229251739353712
1.138110751129359
1.046962898190838
0.9558175700320961
0.8646681705945548
0.7735041556699824
0.6823163122339951
0.5911212128622633
0.4999691040183156
0.4089110627339084
0.317988630350335
0.2271681536611649
0.1363517688252303
0.04545457093701199
8.954544797770088
8.863653289974494
8.772855072448698
8.682063037468128
8.591160573729782
8.500103655684663
8.408927691655252
8.317694879112972
8.226461308756924
8.135253397184629
8.044064690025934
7.952882040096991
7.861696716007017
7.770516414327586
7.679364990933292
7.588268037615848
7.497246581462053
7.406305419020443
7.315436450913552
7.224625618979089
7.133854569572728
7.043100051593696
6.952344415141105
6.861582910634671
6.770815441202068
6.68004181168529
6.589261963530526
6.498475827623231
6.40768352448778
6.316885036002489
6.226080477179644
6.135270004616442
6.04445385477814
5.953632245741539
5.862805461080164
5.77197376997992
5.681137523703671
5.590297020506776
5.499452577884552
5.408604514891495
5.317753184741858
5.226898920230554
5.136042048297997
5.045182918220371
4.954321810107255
4.863459080837031
4.772595050913814
4.681730058965035
4.590864409703904
4.499998432035669
4.409132450966668
4.318266780783562
4.227401738871442
4.136537643081551
4.045674815296787
3.954813591210865
3.863954286789757
3.773097245565219
3.682242794215105
3.591391298194914
3.500543040174018
3.409698379319491
3.31885763992499
3.228021140466121
3.137189225248648
3.046362185038099
2.955540296076641
2.864723804488314
2.773913018797321
2.683108132589622
2.592309357722173
2.501516772573968
2.410730498978861
2.319950536017335
2.22917679489001
2.138409118291977
2.047647474139999
1.956891775643936
1.866138709636094
1.775372122500667
1.684568979263337
1.593709851463833
1.502780093876165
1.411770055420368
1.320682920471858
1.229537885261175
1.138360748776448
1.047175880994531
0.9559940465846357
0.864807828660574
0.7736049885357864
0.6823752628445456
0.5911379013500325
0.4999503106574251
0.4088717847498571
0.3179488443678508
0.2271440838293298
0.1363448845452143
0.04545456498605821
8.954541964254689
8.863660840991015
8.772880441360112
8.682106659944994
8.591206938600745
8.500130880048664
8.408919591263608
8.31764282142912
8.226364782615427
8.135115557302166
8.043887846399947
7.952666776616374
7.861442500764416
7.770223871290556
7.679037994046494
7.587914132241272
7.496876061576676
7.405929453706699
7.315065012321026
7.224266826595187
7.133513952625547
7.042779975487678
6.952044851790802
6.861303141223673
6.77055472384574
6.679799359026016
6.589036963261588
6.498267479136662
6.407491005114439
6.316707529013507
6.225917180062599
6.135120130932167
6.044316649530566
5.953506975386012
5.862691430438922
5.771870321288474
5.68104404438539
5.59021293257779
5.499377350766505
5.408537667445777
5.31769426393822
5.226847527017951
5.135997826249558
5.045145553004024
4.954291042295055
4.863434687839105
4.772576859829898
4.681717933843201
4.590858264312613
4.499998221378767
4.409138172135064
4.318278480667705
4.227419496153045
4.136561589765829
4.04570512804999
3.954850484209654
3.863998025322401
3.773148131498866
3.682301186573283
3.591457581570055
3.500617668472519
3.409781837136504
3.318950459700389
3.228123904237038
3.137302542215904
3.046486708232332
2.955676718914433
2.864872853332274
2.774075446841485
2.68328472888659
2.592500928505977
2.501724136892775
2.410954481536661
2.320191959022043
2.229436473705867
2.138687831289878
2.047945972720072
1.957210797805727
1.866478454545745
1.775730675620734
1.684941159035823
1.594087931583785
1.503154260437371
1.412129256170662
1.32101655126139
1.229837998339016
1.138622949551699
1.047399224095563
0.9561790674239657
0.8649541863658413
0.7737105940661103
0.6824369323384036
0.591155284885076
0.4999305439563128
0.4088305897345115
0.3179071511808294
0.2271188072298658
0.1363376062162326
0.04545456768679403
8.954539489677318
8.863668860783031
8.772907182324891
8.682152089058773
8.591255235208811
8.500159280547733
8.408911057812102
8.317588397903554
8.22626383283221
8.134971366356551
8.04370280055616
7.952441485798247
7.861176420384577
7.769917691250694
7.678695788682367
7.587543814237155
7.496488406205125
7.405536129724868
7.314676446013125
7.223891479724768
7.133157602760074
7.042445090227326
6.951731404397982
6.861010407916845
6.77028191126114
6.679545651112435
6.588801517704252
6.498049448214448
6.407289532316949
6.316521766024697
6.225746281874681
6.134963281754505
6.04417305304356
5.953375871500653
5.862572087447987
5.771762055900657
5.680946208999026
5.590124927493664
5.499298620182405
5.408467696797489
5.317632591696777
5.226793732096273
5.13595153739682
5.045106445653776
4.954258838385972
4.863409158090038
4.772557821218733
4.681705244240595
4.590851834502474
4.49999800154165
4.40914416189811
4.318290722516164
4.227438082384467
4.136586654792792
4.045736852638023
3.95488909732703
3.864043801294267
3.773201392541611
3.682362299129659
3.591526963397936
3.500695779185967
3.409869189219192
3.319047609593123
3.228231453561785
3.137421133175422
3.046617028077389
2.955819493029282
2.865028838065755
2.774245434507864
2.683469539998504
2.592701404366833
2.501941138939782
2.411188866421221
2.320444591617277
2.229708200753332
2.138979470764913
2.048258302967782
1.957544582977425
1.866833900202907
1.776105769152447
1.685330505431551
1.594483460650815
1.503545725653892
1.412505098603551
1.321365686960815
1.230152088786258
1.138897372023876
1.047632968721694
0.9563726665473549
0.8651072868958414
0.7738210229915582
0.682501372220589
0.5911734175041085
0.4999098619662525
0.4087875325224612
0.3178636109322799
0.2270923627470922
0.1363299754709567
0.04545456031038195
8.954537330462815
8.863677573073968
8.772935502933894
8.682199275609969
8.591305408153866
8.500188852245023
8.408902076291184
8.317531475730291
8.226158314527881
8.134820681721774
8.043509405567258
7.952206042145923
7.860898350948476
7.769597748744136
7.678338258651448
7.587156975981716
7.496083519214362
7.405125368160817
7.314270685286113
7.223499541922668
7.132785488399028
7.042095368106991
6.951404061650496
6.860704679054035
6.769996987476371
6.679280677726948
6.588555611675677
6.497821734536028
6.407079110248252
6.316327746994924
6.225567791419872
6.134799462118199
6.044023075675828
5.953238937275761
5.862447440369811
5.771648975886741
5.680844023328446
5.590033007616023
5.499216386992829
5.408394618713561
5.317568179979354
5.226737547506176
5.135903194155947
5.045065597870907
4.954225203692134
4.86338249252342
4.772537934799601
4.681691990522011
4.590845116604265
4.499997772244871
4.409150416580212
4.31830351151397
4.22745749464985
4.136612833295966
4.04576998986278
3.954929426577497
3.86409161460539
3.773257022323675
3.682426130227482
3.59159942458235
3.500777361838015
3.409960420769406
3.319149076205441
3.228343783635294
3.137544999593183
3.046753142147044
2.955968611138579
2.865191754641979
2.774422974240725
2.683662561899606
2.592910786994287
2.502167778450769
2.411433658995056
2.320708439105972
2.22999198714265
2.139284047017803
2.048584486282364
1.957893159327498
1.867205079000321
1.776497446824611
1.685737076139388
1.594896504816117
1.503954564870106
1.412897676418318
1.321730422964694
1.230480260584135
1.139184130837048
1.047877218503525
0.9565749503904255
0.8652672261857275
0.7739363573625972
0.6825686551490991
0.5911923479321419
0.4998883023425151
0.4087426382076607
0.3178182406644324
0.2270647627589052
0.136321979641533
0.04545455779363382
8.954536255911126
8.863686232280411
8.772964732027852
8.682248321209311
8.591357577119053
8.500219588830191
8.408892631219871
8.317472075566227
8.226048226845538
8.13466345136692
8.043307582562068
7.951960306884539
7.860608136643628
7.769263868170026
7.677965221342077
7.586753426219817
7.495661223998595
7.404696998357986
7.313847573061883
7.223090853801382
7.132397465949682
7.041730678014871
6.951062700371139
6.860385863120048
6.769699863470165
6.679004358481977
6.588299181857894
6.49758426709297
6.406859678850574
6.316125422538458
6.225381658159915
6.134628629543989