/*--------------------------------*- C++ -*----------------------------------*\
| =========                 |                                                 |
| \\      /  F ield         | OpenFOAM: The Open Source CFD Toolbox           |
|  \\    /   O peration     | Version:  v1812                                 |
|   \\  /    A nd           | Web:      www.OpenFOAM.com                      |
|    \\/     M anipulation  |                                                 |
\*---------------------------------------------------------------------------*/
FoamFile
{
    version     2.0;
    format      ascii;
    class       volScalarField;
    location    "0.00000001";
    object      p;
}
// * * * * * * * * * * * * * * * * * * * * * * * * * * * * * * * * * * * * * //

dimensions      [0 2 -2 0 0 0 0];


internalField   nonuniform List<scalar> 
14751
(
-7.132019871500245e-05
-6.854518500872969e-05
-6.51582098884445e-05
-6.193683011768639e-05
-5.848965139818802e-05
-5.502473574884126e-05
-5.151509612058714e-05
-4.801503322676534e-05
-4.45444372505476e-05
-4.113904006402359e-05
-3.78204876457993e-05
-3.4616248056281e-05
-3.154877942500873e-05
-2.863902734470108e-05
-2.589791985786038e-05
-2.334838738681137e-05
-2.098686298857669e-05
-1.883407098078087e-05
-1.688330158043034e-05
-1.514670106882606e-05
-1.361770641641976e-05
-1.229883651294133e-05
-1.118534341131297e-05
-1.027724309125758e-05
-9.566249188447042e-06
-9.048573031633707e-06
-8.718442577758057e-06
-8.56852928801756e-06
-8.593950847285593e-06
-8.787483747414875e-06
-9.14246806588937e-06
-9.65323753878116e-06
-1.031055564478016e-05
-1.110819717248299e-05
-1.204284129044009e-05
-1.310421923013916e-05
-1.429000461097516e-05
-1.559208448850161e-05
-1.700411137695941e-05
-1.852183316263935e-05
-2.013859878055124e-05
-2.184889924180045e-05
-2.364688825673036e-05
-2.552746538096449e-05
-2.748402999588223e-05
-2.951166789504621e-05
-3.160422796762684e-05
-3.375608116180638e-05
-3.596124311945151e-05
-3.821369445414087e-05
-4.050727150143382e-05
-4.283594277823632e-05
-4.519281689551439e-05
-4.757157948633878e-05
-4.996528822728357e-05
-5.236702011160351e-05
-5.477001325637324e-05
-5.716679488867935e-05
-5.954981734197676e-05
-6.191281493074847e-05
-6.424594827858888e-05
-6.654423444544424e-05
-6.879904467624993e-05
-7.100175722181163e-05
-7.314770354267347e-05
-7.52282839523286e-05
-7.723776236457356e-05
-7.916778463453526e-05
-8.101421840110419e-05
-8.27702696295649e-05
-8.443024706487149e-05
-8.598965377500383e-05
-8.744276531232593e-05
-8.878570601493262e-05
-9.001441437481117e-05
-9.112490806264239e-05
-9.211160637869388e-05
-9.297304005114219e-05
-9.370467251431606e-05
-9.429817948517631e-05
-9.475484495257885e-05
-9.508811638293268e-05
-9.52734502868201e-05
-9.531336654701335e-05
-9.519882186714881e-05
-9.492479001374427e-05
-9.448690969938684e-05
-9.387921129568543e-05
-9.30941832161505e-05
-9.212648835753408e-05
-9.096852373824095e-05
-8.96183214998558e-05
-8.806803859735167e-05
-8.631128736648978e-05
-8.435696768652382e-05
-8.217310962064692e-05
-7.979353781094403e-05
-7.719352878843996e-05
-7.459388699369455e-05
-7.132064945201157e-05
-6.854547005912066e-05
-6.515862432312292e-05
-6.193731476626126e-05
-5.849020999856182e-05
-5.502539824215119e-05
-5.151575846663209e-05
-4.801571274524833e-05
-4.454513518636997e-05
-4.113976743288937e-05
-3.782125709701553e-05
-3.461704649131435e-05
-3.154961666298393e-05
-2.86399068422888e-05
-2.58988423023266e-05
-2.334936142279631e-05
-2.098790271467114e-05
-1.883517805228147e-05
-1.688447780711149e-05
-1.514794444293143e-05
-1.361899672934692e-05
-1.230015918810003e-05
-1.118667872459442e-05
-1.027858021335107e-05
-9.567567190810386e-06
-9.049856295242149e-06
-8.719685541063455e-06
-8.56971628242283e-06
-8.595079500835804e-06
-8.788544871056592e-06
-9.143455643987027e-06
-9.654144395822054e-06
-1.031138306853942e-05
-1.110894613990779e-05
-1.204350363719142e-05
-1.310479306793105e-05
-1.429049946063713e-05
-1.559248053464156e-05
-1.700442279148165e-05
-1.85220611533843e-05
-2.01387420528014e-05
-2.184895244057752e-05
-2.364685773980179e-05
-2.552734799583988e-05
-2.748382628984342e-05
-2.951138134805114e-05
-3.160385933880471e-05
-3.375563144993344e-05
-3.596071351150605e-05
-3.8213086148678e-05
-4.050658473480731e-05
-4.283517943253034e-05
-4.519197726503028e-05
-4.757066598190402e-05
-4.996430272637809e-05
-5.236596438285522e-05
-5.476888878397356e-05
-5.716560405792511e-05
-5.954856167449963e-05
-6.191149744219942e-05
-6.424457082897705e-05
-6.654280171095126e-05
-6.879756339089908e-05
-7.10002328646098e-05
-7.314614187132395e-05
-7.522668789035981e-05
-7.723613897679613e-05
-7.916613904182357e-05
-8.101255906082494e-05
-8.276860243924415e-05
-8.442857923424131e-05
-8.598799258427259e-05
-8.744111850724185e-05
-8.878408055523347e-05
-9.00128170863263e-05
-9.112334605421294e-05
-9.211008687941726e-05
-9.297156986597429e-05
-9.370326353988717e-05
-9.429685764469099e-05
-9.475360010038803e-05
-9.508694254967872e-05
-9.527236658396297e-05
-9.531237272516465e-05
-9.519791933922866e-05
-9.492398063851105e-05
-9.448618856250192e-05
-9.387857228371744e-05
-9.309362751763232e-05
-9.212600998818814e-05
-9.096811960386428e-05
-8.961799058733951e-05
-8.806775915496076e-05
-8.631104759704705e-05
-8.435678664195911e-05
-8.217306752542335e-05
-7.979361334561694e-05
-7.719358859418986e-05
-7.459401885884143e-05
-7.132080526396684e-05
-6.854660296969793e-05
-6.515961462430393e-05
-6.193890554510588e-05
-5.849192561280716e-05
-5.502708414730807e-05
-5.151726968213318e-05
-4.801696496817945e-05
-4.454612802885715e-05
-4.11405471328386e-05
-3.782186133749239e-05
-3.46174929539282e-05
-3.154992239630608e-05
-2.864009987823276e-05
-2.589895655568646e-05
-2.334948403029696e-05
-2.098808070225072e-05
-1.883548625939996e-05
-1.688493728230566e-05
-1.514857587564236e-05
-1.361978559613888e-05
-1.230108339771986e-05
-1.118770328010214e-05
-1.027967882888394e-05
-9.568706022443961e-06
-9.051015506558172e-06
-8.720841074868931e-06
-8.570847888150731e-06
-8.596172569762236e-06
-8.789584171288281e-06
-9.144425708053984e-06
-9.655038654631411e-06
-1.031220304903212e-05
-1.110967448378734e-05
-1.204413388289448e-05
-1.31053166700307e-05
-1.42909258062564e-05
-1.559280217966833e-05
-1.700461306790063e-05
-1.85221806095072e-05
-2.013875453701498e-05
-2.184884539758158e-05
-2.364664546015937e-05
-2.552703107788507e-05
-2.748340221160168e-05
-2.951085281114856e-05
-3.160322735901318e-05
-3.375489709381381e-05
-3.595987855618189e-05
-3.821215159920501e-05
-4.050555235898703e-05
-4.283405151696634e-05
-4.519075451462095e-05
-4.756935120003773e-05
-4.99628988342305e-05
-5.236447280612183e-05
-5.476731317448997e-05
-5.716394678794801e-05
-5.954682691246755e-05
-6.190969169675827e-05
-6.424269578728608e-05
-6.654086210001947e-05
-6.879556665365844e-05
-7.099818101712219e-05
-7.314404551294251e-05
-7.522455316934649e-05
-7.723397548581221e-05
-7.916395258174616e-05
-8.101036099454487e-05
-8.276640292365177e-05
-8.442638668768634e-05
-8.59858194830396e-05
-8.743897478427764e-05
-8.878197641054498e-05
-9.001076376112159e-05
-9.112135910521428e-05
-9.210817331342704e-05
-9.296974678153506e-05
-9.370156045928684e-05
-9.4295303967948e-05
-9.475215578448903e-05
-9.508566445039804e-05
-9.527126367180824e-05
-9.531144644598705e-05
-9.519716454537196e-05
-9.492337630296558e-05
-9.448571117393216e-05
-9.387820991646589e-05
-9.309334942384958e-05
-9.212580253892467e-05
-9.096793845340419e-05
-8.961779635271186e-05
-8.806753988514921e-05
-8.631070012646964e-05
-8.435650482368531e-05
-8.217286662770239e-05
-7.979368725612378e-05
-7.719361703038584e-05
-7.459505303816467e-05
-7.132072557781792e-05
-6.854865313906995e-05
-6.516120357772652e-05
-6.194137822499311e-05
-5.849453063626268e-05
-5.502948613680702e-05
-5.15193218542998e-05
-4.801848686065302e-05
-4.454711286629025e-05
-4.11410796392001e-05
-3.782199438247848e-05
-3.461726142673667e-05
-3.154936276330075e-05
-2.863927477113273e-05
-2.589792127027383e-05
-2.334841309494936e-05
-2.098704407303942e-05
-1.883463049970292e-05
-1.688430816500738e-05
-1.514821669577915e-05
-1.361969284725134e-05
-1.230122906916992e-05
-1.118804338748971e-05
-1.028017398034434e-05
-9.569310402060601e-06
-9.051706056707116e-06
-8.721573737683288e-06
-8.571603041744917e-06
-8.596920152325161e-06
-8.790303090845862e-06
-9.14508892643024e-06
-9.655656293917091e-06
-1.03127624230923e-05
-1.111010794351434e-05
-1.204447881338574e-05
-1.310555638128906e-05
-1.429098496207053e-05
-1.559288747477459e-05
-1.700450138072175e-05
-1.85219766028104e-05
-2.013842301033912e-05
-2.184838065948115e-05
-2.364605620314014e-05
-2.552631368469279e-05
-2.748256081448059e-05
-2.950988681543841e-05
-3.160213964268972e-05
-3.375368701467049e-05
-3.595855000634467e-05
-3.821070482193636e-05
-4.05039908697709e-05
-4.283237642951541e-05
-4.518897006908145e-05
-4.756746063071611e-05
-4.996090799199164e-05
-5.236238078450138e-05
-5.476512872269417e-05
-5.716167248171244e-05
-5.954447188377169e-05
-6.190725716468092e-05
-6.424019597751625e-05
-6.653829238384197e-05
-6.879294501659517e-05
-7.099551789080028e-05
-7.314134290060606e-05
-7.522182402730946e-05
-7.723123014167264e-05
-7.916120586612399e-05
-8.100762027148167e-05
-8.276368494272083e-05
-8.442369945694516e-05
-8.598318160600936e-05
-8.743639735713664e-05
-8.877947181737592e-05
-9.000834679389469e-05
-9.11190566242498e-05
-9.210598907309571e-05
-9.296770574932186e-05
-9.369972646491994e-05
-9.429368780135991e-05
-9.47506789337338e-05
-9.50844440980424e-05
-9.527032325023124e-05
-9.531078326487372e-05
-9.519678509871354e-05
-9.492318614268006e-05
-9.448570209529995e-05
-9.387837809008952e-05
-9.309362599327005e-05
-9.212616920332745e-05
-9.096831768610941e-05
-8.961811114802424e-05
-8.806776842164594e-05
-8.631068759997113e-05
-8.435662202003971e-05
-8.217300065587717e-05
-7.979412787095355e-05
-7.719374642295315e-05
-7.45975538278988e-05
-7.132079184495335e-05
-6.855171018602204e-05
-6.516373917702489e-05
-6.194492241340635e-05
-5.849824361466742e-05
-5.503292911643816e-05
-5.152229838080986e-05
-4.802075081870763e-05
-4.454863202721669e-05
-4.114198396620674e-05
-3.782233187960261e-05
-3.461708575197128e-05
-3.154870059128444e-05
-2.863822053035913e-05
-2.589654205574156e-05
-2.334694863573689e-05
-2.098558108443278e-05
-1.883337100415313e-05
-1.688332017974584e-05
-1.514755297807721e-05
-1.361936451587598e-05
-1.23012016007171e-05
-1.118826517004044e-05
-1.028058851015456e-05
-9.569864430103804e-06
-9.052373031852883e-06
-8.722286915384331e-06
-8.572346621702637e-06
-8.597644987976239e-06
-8.790981498210467e-06
-9.14569261996414e-06
-9.65622169166021e-06
-1.031315695388136e-05
-1.111028689041505e-05
-1.204459460656429e-05
-1.310565337972509e-05
-1.429072535225923e-05
-1.559261382930821e-05
-1.700400392862017e-05
-1.852128120803625e-05
-2.01375439098721e-05
-2.184731077852223e-05
-2.364480193213595e-05
-2.552486420780515e-05
-2.748092798380095e-05
-2.950806512127104e-05
-3.160013509859535e-05
-3.375149781988356e-05
-3.595618332650696e-05
-3.82081607768715e-05
-4.050127677612636e-05
-4.282949298039405e-05
-4.5185928598097e-05
-4.756426525554732e-05
-4.995757145523975e-05
-5.235890019797212e-05
-5.476152166825903e-05
-5.715794612869835e-05
-5.954064469555283e-05
-6.190333052036406e-05
-6.423620327461111e-05
-6.653421589474373e-05
-6.8788814437096e-05
-7.099136132215211e-05
-7.313715847320296e-05
-7.521763542164024e-05
-7.72270510549705e-05
-7.915706590719787e-05
-8.100352475554067e-05
-8.27596593663523e-05
-8.441975339876031e-05
-8.597934100391212e-05
-8.743267690311967e-05
-8.877588597595715e-05
-9.000491079110824e-05
-9.111581280097087e-05
-9.210293723852333e-05
-9.296486991024383e-05
-9.36972285749995e-05
-9.429150631002934e-05
-9.474870308832378e-05
-9.508274954858175e-05
-9.526904149385962e-05
-9.530990310823772e-05
-9.519629315757635e-05
-9.49230178860556e-05
-9.448581245943983e-05
-9.38787440398739e-05
-9.309417810332061e-05
-9.212688752442797e-05
-9.096910235253255e-05
-8.961884220203808e-05
-8.806840359211579e-05
-8.631106257963983e-05
-8.435723553778182e-05
-8.217369733539859e-05
-7.979511594397445e-05
-7.719389322113497e-05
-7.460192106952906e-05
-7.132163093144782e-05
-6.855606910630431e-05
-6.516795246186179e-05
-6.195014149099363e-05
-5.850379582932475e-05
-5.503825579664164e-05
-5.152711943129616e-05
-4.802479428457779e-05
-4.455179724643789e-05
-4.11444521648448e-05
-3.782411480295697e-05
-3.461824034113488e-05
-3.15492499883511e-05
-2.863828615969423e-05
-2.589618443893505e-05
-2.334645072788585e-05
-2.098503935022421e-05
-1.883302051259884e-05
-1.688324878574703e-05
-1.51478107002186e-05
-1.361997160043544e-05
-1.230211273599793e-05
-1.118941866886299e-05
-1.0281908152327e-05
-9.571285654943932e-06
-9.053861794253545e-06
-8.723751496628897e-06
-8.573773847432769e-06
-8.598962829785382e-06
-8.792159283162669e-06
-9.146718302078757e-06
-9.657020435134153e-06
-1.031342180836361e-05
-1.111078353019211e-05
-1.204463625983945e-05
-1.310557333427059e-05
-1.429021838749867e-05
-1.559177752562056e-05
-1.700287099811444e-05
-1.85198082681266e-05
-2.013574224076456e-05
-2.184517434101223e-05
-2.364234075479861e-05
-2.552205708270041e-05
-2.747780185171796e-05
-2.950461002415183e-05
-3.15963633635634e-05
-3.374740888546937e-05
-3.595179049517466e-05
-3.820346737563171e-05
-4.049629746553618e-05
-4.282423083868066e-05
-4.518040864184217e-05
-4.755849692259476e-05
-4.995157999367666e-05
-5.235268438455326e-05
-5.475511511357144e-05
-5.71513715963519e-05
-5.953393679922587e-05
-6.189647987193825e-05
-6.4229279752771e-05
-6.652719994908341e-05
-6.878174852701497e-05
-7.098430576240962e-05
-7.313010903431815e-05
-7.521063158532593e-05
-7.722011329264605e-05
-7.915024841600227e-05
-8.099682981566876e-05
-8.275312331349264e-05
-8.4413390760525e-05
-8.597318533001246e-05
-8.742674880778566e-05
-8.877020005587843e-05
-8.999947550070396e-05
-9.111067805019044e-05
-9.209810503497299e-05
-9.296036219204771e-05
-9.369323631185851e-05
-9.428803999832948e-05
-9.474524677144017e-05
-9.507992516978023e-05
-9.526671389082069e-05
-9.530811896593956e-05
-9.519502216271098e-05
-9.492227659272551e-05
-9.448550672558356e-05
-9.387882681578054e-05
-9.309459206258711e-05
-9.21276083875806e-05
-9.097002519396878e-05
-8.961979877664576e-05
-8.806935723372871e-05
-8.631179955317468e-05
-8.435835437753965e-05
-8.217508403740001e-05
-7.979686774327664e-05
-7.719431609467961e-05
-7.460832146497618e-05
-7.132415019574542e-05
-6.856228691409135e-05
-6.517473920563919e-05
-6.195783000529723e-05
-5.851211212268965e-05
-5.504648281146473e-05
-5.153485616332028e-05
-4.803178605397658e-05
-4.455783256994237e-05
-4.114977016365629e-05
-3.782866230217957e-05
-3.462208460152335e-05
-3.155239541754028e-05
-2.864084868791663e-05
-2.5898216756034e-05
-2.33482429754925e-05
-2.09867104524276e-05
-1.883481367513364e-05
-1.688526858970844e-05
-1.515008819868877e-05
-1.362253208433082e-05
-1.230489454341627e-05
-1.119234646665255e-05
-1.028488153730691e-05
-9.574227700321009e-06
-9.056726074256843e-06
-8.726421671483059e-06
-8.576237887512017e-06
-8.601122996986386e-06
-8.793984433041481e-06
-9.148158574421712e-06
-9.657532869157876e-06
-1.03139819561379e-05
-1.111134866511875e-05
-1.204432528597241e-05
-1.310477441215876e-05
-1.428884585655646e-05
-1.55898239374511e-05
-1.7000412123957e-05
-1.851678924799758e-05
-2.013217489526046e-05
-2.184105769014813e-05
-2.363769296102792e-05
-2.551685349322655e-05
-2.747208854958961e-05
-2.94983769366643e-05
-3.158963551922732e-05
-3.374019217434639e-05
-3.594411020738189e-05
-3.819533602470982e-05
-4.048774304448279e-05
-4.2815265443055e-05
-4.517107778858976e-05
-4.754882062476336e-05
-4.994160246919336e-05
-5.234241468543703e-05
-5.474460967813533e-05
-5.714067070705806e-05
-5.952309615938974e-05
-6.188549002448293e-05
-6.421824634899456e-05
-6.651610949056174e-05
-6.877065777977479e-05
-7.097330856141283e-05
-7.311920414573144e-05
-7.519987593852451e-05
-7.720953451798033e-05
-7.913992562100262e-05
-8.098676398827093e-05
-8.274336087607303e-05
-8.44039511705964e-05
-8.596409784607191e-05
-8.741801788550606e-05
-8.876184377469477e-05
-8.999151315979759e-05
-9.110316926645106e-05
-9.209105519031844e-05
-9.295374625236127e-05
-9.368724713710168e-05
-9.428319876160837e-05
-9.473981413321573e-05
-9.507560445470841e-05
-9.526309168973253e-05
-9.530517252042002e-05
-9.519278693137497e-05
-9.492076125894693e-05
-9.448462993763809e-05
-9.387852650059273e-05
-9.309482219328534e-05
-9.212833908443377e-05
-9.097115519185305e-05
-8.962110849895966e-05
-8.807082277929605e-05
-8.631317511700287e-05
-8.43602390629413e-05
-8.217752011911089e-05
-7.979982068131379e-05
-7.71956113694213e-05
-7.461701348517421e-05
-7.132940605485388e-05
-6.857105951725322e-05
-6.518491622431788e-05
-6.196883674661626e-05
-5.852404390330558e-05
-5.505852935490022e-05
-5.15464227860768e-05
-4.804267729056477e-05
-4.456769036607916e-05
-4.115887553012105e-05
-3.78368972209344e-05
-3.462950781854878e-05
-3.155898520593713e-05
-2.864669763382277e-05
-2.590337324403978e-05
-2.335297871579599e-05
-2.099116525253169e-05
-1.883921639360989e-05
-1.688974101477197e-05
-1.515463727700959e-05
-1.362718513708727e-05
-1.230957359570998e-05
-1.119696400660999e-05
-1.028931869241173e-05
-9.578400445685072e-06
-9.060577050615009e-06
-8.729819830386498e-06
-8.579172513268634e-06
-8.603484232438685e-06
-8.795786499496122e-06
-9.149244516798653e-06
-9.656853738341807e-06
-1.031452474487955e-05
-1.111059955834828e-05
-1.204266485606005e-05
-1.310234368321664e-05
-1.428561021945867e-05
-1.558576648670751e-05
-1.699562566124924e-05
-1.851121689904413e-05
-2.012584192810485e-05
-2.183397323920714e-05
-2.362988695367099e-05
-2.550830635528317e-05
-2.746286781092192e-05
-2.948847912031577e-05
-3.157910278504562e-05
-3.372904172521895e-05
-3.593238345090907e-05
-3.818305833694206e-05
-4.047495910145966e-05
-4.280200133571823e-05
-4.515740052010532e-05
-4.753476390708626e-05
-4.99272300602761e-05
-5.232775109236805e-05
-5.472973443160515e-05
-5.712563903913653e-05
-5.950798139908565e-05
-6.187028586663164e-05
-6.420308815023601e-05
-6.650099294255582e-05
-6.875564947543108e-05
-7.095852864548278e-05
-7.310465378751207e-05
-7.518562477205292e-05
-7.719561278477412e-05
-7.912643268121527e-05
-8.097369909668661e-05
-8.273076821638423e-05
-8.439182429737448e-05
-8.595246428642324e-05
-8.740690192932578e-05
-8.875126093519635e-05
-8.998147565554634e-05
-9.109374299437917e-05
-9.208225400663191e-05
-9.294547391595106e-05
-9.367964313692174e-05
-9.427752048913022e-05
-9.473302317701833e-05
-9.50701026517235e-05
-9.525863672547387e-05
-9.530151808333893e-05
-9.519006977894146e-05
-9.491895183373852e-05
-9.448367353904811e-05
-9.38783469229265e-05
-9.309538862922364e-05
-9.212961511611528e-05
-9.097304780353604e-05
-8.962335383071221e-05
-8.807340286631511e-05
-8.631584386770568e-05
-8.436349379938396e-05
-8.218166788770271e-05
-7.980467743745034e-05
-7.719863308024171e-05
-7.462840530073733e-05
-7.133834676380094e-05
-6.858311240504764e-05
-6.519917188601838e-05
-6.198382018803201e-05
-5.854013881929843e-05
-5.507496897883544e-05
-5.156233186300685e-05
-4.805794898770645e-05
-4.458179062761263e-05
-4.117210398801122e-05
-3.784907229690355e-05
-3.464067042386825e-05
-3.156907834632338e-05
-2.865578167799808e-05
-2.59114939489454e-05
-2.336037567428011e-05
-2.099801025543985e-05
-1.884571746602451e-05
-1.689604320867442e-05
-1.516072922800084e-05
-1.363310312291175e-05
-1.231523219062058e-05
-1.120227522926528e-05
-1.029416030216427e-05
-9.582693096721549e-06
-9.064262440224617e-06
-8.732769585652196e-06
-8.58138343069941e-06
-8.604859623384661e-06
-8.796349806963571e-06
-9.148374977359447e-06
-9.655141161622157e-06
-1.03129876887235e-05
-1.11076009334698e-05
-1.203864009129309e-05
-1.309735389308488e-05
-1.427964043926192e-05
-1.557880208413335e-05
-1.698778571619064e-05
-1.850244442460905e-05
-2.011618215465093e-05
-2.182344604975951e-05
-2.361853620754601e-05
-2.549612401259282e-05
-2.744993860353434e-05
-2.947480929489418e-05
-3.156475159332136e-05
-3.371403751044732e-05
-3.591678323660731e-05
-3.816689928626156e-05
-4.045830076041372e-05
-4.278488358074548e-05
-4.513990710367867e-05
-4.751694012995562e-05
-4.990915425297604e-05
-5.230946220180292e-05
-5.471133146444314e-05
-5.710718319373956e-05
-5.94895536207628e-05
-6.185188581447468e-05
-6.418486839988911e-05
-6.648295441532023e-05
-6.873786304507093e-05
-7.094112879592202e-05
-7.308764065951474e-05
-7.516907293035761e-05
-7.717955027431879e-05
-7.911097003927297e-05
-8.095882077848865e-05
-8.271649185121152e-05
-8.437814744815647e-05
-8.593942541263015e-05
-8.73945200535005e-05
-8.873954800501342e-05
-8.997043538745613e-05
-9.108344273380472e-05
-9.207271925553719e-05
-9.293654548748714e-05
-9.367144321750244e-05
-9.427169617672111e-05
-9.472619406974914e-05
-9.506419509442371e-05
-9.525422646643047e-05
-9.529802581935012e-05
-9.518773652819192e-05
-9.491770052393554e-05
-9.448347844291232e-05
-9.387911849583386e-05
-9.309711184545899e-05
-9.21322464545565e-05
-9.09765024378454e-05
-8.962733620540194e-05
-8.807789017362152e-05
-8.632061422378455e-05
-8.436887844187545e-05
-8.218830331898825e-05
-7.981222126439774e-05
-7.720429461370285e-05
-7.464294344382604e-05
-7.135163266913463e-05
-6.859888768412386e-05
-6.521784249446362e-05
-6.200316788643106e-05
-5.856065109280812e-05
-5.50959792037593e-05
-5.158267482731812e-05
-4.807757605942378e-05
-4.4600004558461e-05
-4.118918878507574e-05
-3.786480585308049e-05
-3.465506498865222e-05
-3.158204056324024e-05
-2.866733855449965e-05
-2.592170016369524e-05
-2.336944251908674e-05
-2.100615584072531e-05
-1.885313699010947e-05
-1.690291895756703e-05
-1.516704740719441e-05
-1.363892147239267e-05
-1.232047289631027e-05
-1.120686543055817e-05
-1.029799358613471e-05
-9.585708633975478e-06
-9.066413920571005e-06
-8.733945576311623e-06
-8.581599792882714e-06
-8.604084547348315e-06
-8.794484091220688e-06
-9.144150892996038e-06
-9.651914099929608e-06
-1.030830790570971e-05
-1.110164269865895e-05
-1.203156659952261e-05
-1.308923185997762e-05
-1.427047027157763e-05
-1.556857322976268e-05
-1.697663954046561e-05
-1.849032766974411e-05
-2.010315841641791e-05
-2.180954460854052e-05
-2.360381300015883e-05
-2.548058341582071e-05
-2.743367606163137e-05
-2.945784071234905e-05
-3.154714933094515e-05
-3.369583864226248e-05
-3.589805633446293e-05
-3.814768962426291e-05
-4.04386784233104e-05
-4.276489932709596e-05
-4.511965467895898e-05
-4.749647292268209e-05
-4.988855820181452e-05
-5.228878986275753e-05
-5.46906926653011e-05
-5.708663557570962e-05
-5.946917841719112e-05
-6.183168875001184e-05
-6.416500788023808e-05
-6.646343261338136e-05
-6.871874923801343e-05
-7.092256076518952e-05
-7.306961422436927e-05
-7.515166068742762e-05
-7.716277468503206e-05
-7.909494079952283e-05
-8.094348726741006e-05
-8.270186774685304e-05
-8.436424767207251e-05
-8.592627397900954e-05
-8.738212993238852e-05
-8.872792617596908e-05
-8.995957784051488e-05
-9.107341557415818e-05
-9.206356291335231e-05
-9.292804978579887e-05
-9.366370837551954e-05
-9.426583917839795e-05
-9.472133645179824e-05
-9.505874947525295e-05
-9.525076829890205e-05
-9.529559927948215e-05
-9.518666590891807e-05
-9.491786371177385e-05
-9.448487657015595e-05
-9.388165211280945e-05
-9.310077939351014e-05
-9.213699932792393e-05
-9.098226055914302e-05
-8.96337853794469e-05
-8.808499261784758e-05
-8.632818821938817e-05
-8.437706653664087e-05
-8.219808892044506e-05
-7.982309742217453e-05
-7.721333985511925e-05
-7.466097722507643e-05
-7.136957522079392e-05
-6.861861630750548e-05
-6.524103944204075e-05
-6.202688246999431e-05
-5.858546839583309e-05
-5.512132685459775e-05
-5.16071254305118e-05
-4.81010994224655e-05
-4.462175955211164e-05
-4.120940693683725e-05
-3.788326283439837e-05
-3.4671740269512e-05
-3.159680430143307e-05
-2.868019928903946e-05
-2.59327375740994e-05
-2.337885312402392e-05
-2.10142220299204e-05
-1.886005570136569e-05
-1.690892627626872e-05
-1.51721441552554e-05
-1.364320152128751e-05
-1.232388049738553e-05
-1.120935692448367e-05
-1.029949363527732e-05
-9.586184887112267e-06
-9.065840128388931e-06
-8.732236364086121e-06
-8.578811347015612e-06
-8.600200958001105e-06
-8.788796413051689e-06
-9.137265020240278e-06
-9.645533532045231e-06
-1.030005240381839e-05
-1.109229319236492e-05
-1.202109255505997e-05
-1.307773116446169e-05
-1.425794782817265e-05
-1.555502779207372e-05
-1.696222404801425e-05
-1.84749963564751e-05
-2.008698783682495e-05
-2.179257061379201e-05
-2.358610082101846e-05
-2.546214736328604e-05
-2.741461736572812e-05
-2.943818380806269e-05
-3.152697473300965e-05
-3.367518949705978e-05
-3.587700887502416e-05
-3.812629394992334e-05
-4.041701096427994e-05
-4.274301874277267e-05
-4.509765979246306e-05
-4.747442185471766e-05
-4.986653881026232e-05
-5.226687253392446e-05
-5.466898362923293e-05
-5.706518099388501e-05
-5.94480623660726e-05
-6.181091853267946e-05
-6.414474085226207e-05
-6.644366883418958e-05
-6.869955231750597e-05
-7.090406555524264e-05
-7.30518086638951e-05
-7.513461113050818e-05
-7.714649393884894e-05
-7.907951811747977e-05
-8.092885817261833e-05
-8.268804912841316e-05
-8.435125076108435e-05
-8.591410807979e-05
-8.737080125510554e-05
-8.87174360485003e-05
-8.994991415574167e-05
-9.106464224701148e-05
-9.2055736463447e-05
-9.292090613049785e-05
-9.365735185707322e-05
-9.426057468544655e-05
-9.471943160071139e-05
-9.505466232611664e-05
-9.524903303020548e-05
-9.529500046109193e-05
-9.518757766317257e-05
-9.492013882902206e-05
-9.448853289920192e-05
-9.388658801913762e-05
-9.310700149826812e-05
-9.214445715372898e-05
-9.099087464602165e-05
-8.964323401439499e-05
-8.809521494030139e-05
-8.633904977246737e-05
-8.438852808889055e-05
-8.221146269010959e-05
-7.983770558693221e-05
-7.722623187951584e-05
-7.468268580994329e-05
-7.139218591136113e-05
-6.864222119914766e-05
-6.526856476297808e-05
-6.20547436570312e-05
-5.861427495362318e-05
-5.515053795646658e-05
-5.163512331664723e-05
-4.812780105291484e-05
-4.46462413322266e-05
-4.123181770005066e-05
-3.790341299078259e-05
-3.468957638954651e-05
-3.161217572947508e-05
-2.869311034499609e-05
-2.594331260827981e-05
-2.338728901999557e-05
-2.102088319201663e-05
-1.886515520682978e-05
-1.691276779419893e-05
-1.517475659063489e-05
-1.364472541317815e-05
-1.232429136230891e-05
-1.120864868899976e-05
-1.029763015125972e-05
-9.583167287342801e-06
-9.061662631061058e-06
-8.726851726131388e-06
-8.572358984940121e-06
-8.592496536539717e-06
-8.778399646138382e-06
-9.12801407727111e-06
-9.635109851469479e-06
-1.028801922394577e-05
-1.107931923075138e-05
-1.200705867157184e-05
-1.306276705218905e-05
-1.42420543356279e-05
-1.553821653184754e-05
-1.694465050296657e-05
-1.845662463005901e-05
-2.006790186417874e-05
-2.17728115016934e-05
-2.356574018834417e-05
-2.544120741543488e-05
-2.739320181617606e-05
-2.941632423861385e-05
-3.150475612438312e-05
-3.365265992212329e-05
-3.585424897877312e-05
-3.810335649819565e-05
-4.03939763157914e-05
-4.271995100436253e-05
-4.507466056501093e-05
-4.745155050246922e-05
-4.984388592777527e-05
-5.224452691792743e-05
-5.464703376202379e-05
-5.704365888986802e-05
-5.942706118429371e-05
-6.179044268653545e-05
-6.412494174145276e-05
-6.642454251985135e-05
-6.868115450580537e-05
-7.088652305093919e-05
-7.303510043809685e-05
-7.51187943932415e-05
-7.713156859416686e-05
-7.906554841981466e-05
-8.091577413159353e-05
-8.267587135080506e-05
-8.433997604560857e-05
-8.590373098365762e-05
-8.736132082281331e-05
-8.870884666794268e-05
-8.99421951339479e-05
-9.105785488898635e-05
-9.204995419506389e-05
-9.291580243357404e-05
-9.365310718663407e-05
-9.425716577878283e-05
-9.4720071403493e-05
-9.505286861174946e-05
-9.524960518762985e-05
-9.5296811564753e-05
-9.519099857479208e-05
-9.492503606614707e-05
-9.449492338392414e-05
-9.389437935829794e-05
-9.311620086555492e-05
-9.215501521590749e-05
-9.100270880811774e-05
-8.965602080783545e-05
-8.810886479648784e-05
-8.635347836091245e-05
-8.440353238025114e-05
-8.222864714656823e-05
-7.985621348873681e-05
-7.72431700562574e-05
-7.470807183444355e-05
-7.141931397568839e-05
-6.866952400327602e-05
-6.530012960859544e-05
-6.208634456043853e-05
-5.864659349542499e-05
-5.518300300285064e-05
-5.166599006408862e-05
-4.815687996536335e-05
-4.467259131237852e-05
-4.125547896828789e-05
-3.792425574594918e-05
-3.470751939201532e-05
-3.162706698499582e-05
-2.870496498176428e-05
-2.595231481151352e-05
-2.339364975781662e-05
-2.102506055607284e-05
-1.886738845970669e-05
-1.691343662986693e-05
-1.517392548594809e-05
-1.364258718984888e-05
-1.232085661443587e-05
-1.120395206197126e-05
-1.029167846554773e-05
-9.575994494539503e-06
-9.053282602591366e-06
-8.717281693461298e-06
-8.561700391782126e-06
-8.579828536645444e-06
-8.764627925342488e-06
-9.115052587536364e-06
-9.620468825623527e-06
-1.027206944374152e-05
-1.106257242985164e-05
-1.198936976951392e-05
-1.304428784358421e-05
-1.422278015115935e-05
-1.551817260843085e-05
-1.692398947146756e-05
-1.843532232527841e-05
-2.004604518591338e-05
-2.175044648332365e-05
-2.354294251363691e-05
-2.541800588350067e-05
-2.736970088275905e-05
-2.939256188564842e-05
-3.148081988859665e-05
-3.362860185569337e-05
-3.583015244953849e-05
-3.80792759021496e-05
-4.036999392929192e-05
-4.269613616109755e-05
-4.50511150178361e-05
-4.742833358321443e-05
-4.982110046130059e-05
-5.222226341144618e-05
-5.462535641780971e-05
-5.70225995791041e-05
-5.94067152357193e-05
-6.177081034118765e-05
-6.410616627436819e-05
-6.640661508935112e-05
-6.866412125846695e-05
-7.087050098330148e-05
-7.302005818226454e-05
-7.510477870301973e-05
-7.711855746430448e-05
-7.905359376811624e-05
-8.090480283003841e-05
-8.2665893700451e-05
-8.433097661579281e-05
-8.589568853756196e-05
-8.735422626273217e-05
-8.870268665220694e-05
-8.993693982173121e-05
-9.105356237147889e-05
-9.204671631138492e-05
-9.291321736280559e-05
-9.365149262876523e-05
-9.425705445959719e-05
-9.472229711384349e-05
-9.505411908059387e-05
-9.525288530870502e-05
-9.530145052957726e-05