/*--------------------------------*- C++ -*----------------------------------*\
| =========                 |                                                 |
| \\      /  F ield         | OpenFOAM: The Open Source CFD Toolbox           |
|  \\    /   O peration     | Version:  v1812                                 |
|   \\  /    A nd           | Web:      www.OpenFOAM.com                      |
|    \\/     M anipulation  |                                                 |
\*---------------------------------------------------------------------------*/
FoamFile
{
    version     2.0;
    format      ascii;
    class       volVectorField;
    location    "0.00000001";
    object      varRefFieldInversion;
}
// * * * * * * * * * * * * * * * * * * * * * * * * * * * * * * * * * * * * * //

dimensions      [0 1 -1 0 0 0 0];


internalField   nonuniform List<vector> 
14751
(
(0.001597599711345916 -1.096277154485122e-07 3.626661525926551e-06)
(0.001601309124885187 -5.880052687207999e-08 3.645598842016809e-06)
(0.001602325036278087 -9.929251115233551e-09 3.651074255792304e-06)
(0.001600579650526554 3.327960235774228e-08 3.645673762305472e-06)
(0.001596117532933239 9.525992722294042e-08 3.651557832319975e-06)
(0.001588977634670945 1.984496144936817e-07 3.689956884161709e-06)
(0.001579228496587263 3.042087364998284e-07 3.756312479850326e-06)
(0.001567019766431359 4.076811833294853e-07 3.83224680792587e-06)
(0.001552565733070433 4.897299424273454e-07 3.905826106836672e-06)
(0.001536050035088584 5.039023838967318e-07 3.972779551668145e-06)
(0.00151772557016034 5.089765313429016e-07 4.038168636577278e-06)
(0.001497858985781024 5.031100794071023e-07 4.107985778128925e-06)
(0.001476711056037934 5.01212173196229e-07 4.186989646387957e-06)
(0.001454547187835279 5.6909180968978e-07 4.27651083403346e-06)
(0.001431642598601789 6.323270130464228e-07 4.353208902142203e-06)
(0.001408194022871823 6.891986716732189e-07 4.382931283062e-06)
(0.001384497751574975 7.385214442865539e-07 4.406844894306907e-06)
(0.001360745154929464 6.921498806303232e-07 4.393406059892843e-06)
(0.001337090839172496 6.432144569175203e-07 4.317264464300727e-06)
(0.001313708933199709 5.892019460044661e-07 4.219150020470289e-06)
(0.001290771500427666 5.357385720812419e-07 4.149272797990369e-06)
(0.001268366230429136 5.529207156252756e-07 4.093070016715935e-06)
(0.001246594003536368 5.767397374194989e-07 4.033957521644297e-06)
(0.001225514008969529 5.952402363577248e-07 3.9834070280848e-06)
(0.001205112093697775 6.134603120402885e-07 3.94035361678398e-06)
(0.00118536708876453 5.745296533918843e-07 3.918380146771993e-06)
(0.001166262401380669 5.221543869423379e-07 3.91466797922571e-06)
(0.001147786892432782 4.733714121161923e-07 3.963339379849992e-06)
(0.001129966734967482 4.299011258445051e-07 4.039090945762258e-06)
(0.00111272900323538 4.216000274686026e-07 4.039075011763126e-06)
(0.00109634297585104 4.24141615168319e-07 3.949853580602195e-06)
(0.001080756949923187 4.293417511707836e-07 3.843432414349983e-06)
(0.001065699919845725 4.328970107665999e-07 3.759917707358094e-06)
(0.001051286515102358 4.11309740431424e-07 3.643919411970646e-06)
(0.001037315284482733 3.834815144694667e-07 3.537524151155756e-06)
(0.001023753497689534 3.592775224203068e-07 3.427920045891214e-06)
(0.001010627295654311 3.370206571973338e-07 3.346579421038796e-06)
(0.0009980429170838004 3.269345865563291e-07 3.353291501586007e-06)
(0.000985852611145502 3.240724242924611e-07 3.403923383114983e-06)
(0.0009742801874442449 3.056835621064764e-07 3.444662171845521e-06)
(0.0009634439310678969 2.877963282540648e-07 3.402903345728198e-06)
(0.0009531435272981265 2.71955492048553e-07 3.316938012809754e-06)
(0.0009429876200914759 2.712089736282625e-07 3.302218605959614e-06)
(0.0009330542619229933 2.671090394218043e-07 3.413183513714995e-06)
(0.0009235043203228229 2.677257696012717e-07 3.571731877859555e-06)
(0.0009144364204106952 2.630016928684238e-07 3.729610256473426e-06)
(0.0009059600559890842 2.379986283785187e-07 3.806788600326959e-06)
(0.0008981714728609786 2.016170500187099e-07 3.795224726029035e-06)
(0.0008910958687497816 1.642446013908391e-07 3.742294287149942e-06)
(0.0008847961042054837 1.213722446374134e-07 3.663277738414377e-06)
(0.000879138452677382 1.216714667663354e-07 3.527207491480578e-06)
(0.0008743566771717659 1.147322832281863e-07 3.403980025358495e-06)
(0.0008707657121098763 1.035441861285347e-07 3.242672997863216e-06)
(0.000868507834408362 1.001923460777294e-07 3.108073566626187e-06)
(0.0008675035321127304 4.685616233693209e-08 3.01209524306234e-06)
(0.000867801656371847 -1.805439529622208e-08 2.9600022614392e-06)
(0.0008694435491781446 -8.664569230856371e-08 2.923637631004666e-06)
(0.000872480073652918 -1.569755741219263e-07 2.89058259026858e-06)
(0.0008767475711236536 -1.729704543187629e-07 2.878374982286682e-06)
(0.0008821486343659486 -1.709860155510935e-07 2.89994692495495e-06)
(0.0008888400350164147 -1.742913875114537e-07 2.955228494058795e-06)
(0.0008969839643363056 -1.739074956552213e-07 2.957606027719689e-06)
(0.0009064934248202604 -2.181736797950861e-07 2.948099235918058e-06)
(0.000917332532810757 -2.923542432275919e-07 2.94175919906148e-06)
(0.0009295203245556906 -3.667917913937671e-07 2.945626342520298e-06)
(0.000942940613253538 -4.374365613109813e-07 2.968907736625388e-06)
(0.0009575421278506214 -4.712569377401295e-07 2.985328440852933e-06)
(0.0009732773820230421 -4.591286260042081e-07 3.011265227978199e-06)
(0.0009899247611195666 -4.426746571704265e-07 3.012700957824905e-06)
(0.001007505692228916 -4.294293685226046e-07 3.013720570571069e-06)
(0.00102601574597976 -4.449654237608966e-07 3.043155509760958e-06)
(0.001045405160758055 -5.078630281487937e-07 3.071860388214473e-06)
(0.001065604267611601 -5.669117141990712e-07 3.13030299246538e-06)
(0.001086475455788117 -6.205728236429407e-07 3.21114304187262e-06)
(0.001107897613908189 -6.522951501380312e-07 3.273649341415253e-06)
(0.001129765762839797 -6.249821689484071e-07 3.312790483878563e-06)
(0.00115203965162937 -6.016546538258271e-07 3.331400811685132e-06)
(0.001174682064472453 -5.761640361231698e-07 3.334011744793617e-06)
(0.001197532742817347 -5.58481517790515e-07 3.333131880180416e-06)
(0.001220549812336892 -5.973360915555693e-07 3.330387390802321e-06)
(0.001243703563274525 -6.302428447314715e-07 3.340000472502992e-06)
(0.001266925315206317 -6.591021241188362e-07 3.351996735645101e-06)
(0.001290182747739568 -6.81074820080834e-07 3.343007953089164e-06)
(0.001313378277234034 -6.5260806092371e-07 3.339359089359033e-06)
(0.001336520665122797 -6.289039163802147e-07 3.340658574781521e-06)
(0.001359587929889323 -6.080963674196801e-07 3.346620615224591e-06)
(0.001382460419885742 -5.88957376050201e-07 3.36333658061353e-06)
(0.001405034984979586 -5.947225975828262e-07 3.377108692093482e-06)
(0.001427208544073728 -5.964882421374356e-07 3.391128550247044e-06)
(0.001448843107925995 -5.880037097010437e-07 3.416931130262889e-06)
(0.001469803782919719 -5.709281907741443e-07 3.443312964037988e-06)
(0.001489957324802777 -5.40942052077522e-07 3.474407072783663e-06)
(0.001509117922686199 -5.091582565074012e-07 3.496934035753834e-06)
(0.001527077122863238 -4.783898599798886e-07 3.519960236912967e-06)
(0.001543651157920801 -4.479035775859753e-07 3.542133755605827e-06)
(0.001558573297603611 -4.034662699367872e-07 3.570368951322869e-06)
(0.001571629083237863 -3.412687211859364e-07 3.592185698420903e-06)
(0.001582618668533207 -2.675027899941075e-07 3.596595949002962e-06)
(0.001591323942710937 -1.817462100105898e-07 3.60344130617197e-06)
(0.004864691121047711 -3.338163935406782e-07 1.104318434644498e-05)
(0.004875987112178279 -1.78748267275883e-07 1.11008518722314e-05)
(0.004879079444673083 -2.957463792239169e-08 1.111752090760496e-05)
(0.004881764600932048 1.025750837446707e-07 1.111929718226716e-05)
(0.004876133254282646 2.900272797044491e-07 1.115553049900341e-05)
(0.004862262952326462 6.061884375178901e-07 1.1291323953958e-05)
(0.004840324013410684 9.31259152334592e-07 1.151317653724671e-05)
(0.00481073227890525 1.249968791267932e-06 1.176510214981008e-05)
(0.004774118520360724 1.507758409454946e-06 1.2010510589826e-05)
(0.004731010259302807 1.553912435972266e-06 1.223625125548373e-05)
(0.004682150577347646 1.572614128127147e-06 1.24578632837456e-05)
(0.004628341968253399 1.557566370714313e-06 1.269381484368756e-05)
(0.004570376265156402 1.54838278998369e-06 1.29589178236083e-05)
(0.00450904998804443 1.761264466218247e-06 1.325737413846643e-05)
(0.004445202594280819 1.960426629660287e-06 1.351683729307395e-05)
(0.004379434899667941 2.140434527995834e-06 1.363095146771034e-05)
(0.004312229608855148 2.303025611079666e-06 1.372665526678961e-05)
(0.004238271878126762 2.164613765964551e-06 1.368470852020208e-05)
(0.004170694495243241 2.023966729053984e-06 1.346829270826517e-05)
(0.004103780007762664 1.86749311308918e-06 1.318275495278615e-05)
(0.004038079315320009 1.712057135247719e-06 1.298463366170109e-05)
(0.003973882497014532 1.771592611373171e-06 1.282883278139307e-05)
(0.003905749461249287 1.843644344319858e-06 1.26440442646777e-05)
(0.00384550645840528 1.90379229603363e-06 1.250528043862531e-05)
(0.003787133737112778 1.975674266990949e-06 1.238891797506967e-05)
(0.00373085931086665 1.865796288075125e-06 1.233873993310614e-05)
(0.003670814251005637 1.691578247334024e-06 1.232672969308776e-05)
(0.003618195270866489 1.545803235323624e-06 1.249937018167992e-05)
(0.003562254159656888 1.415841483601913e-06 1.273797163071865e-05)
(0.003513353165588703 1.393691297984159e-06 1.275807355517498e-05)
(0.003461862864823991 1.390550868637341e-06 1.247731300906687e-05)
(0.003417971327717386 1.411002739774241e-06 1.216035472082084e-05)
(0.003370467571538164 1.425512388800598e-06 1.189625250548434e-05)
(0.003325198053225974 1.356175087045877e-06 1.153201041036257e-05)
(0.00328619801967924 1.273866382384207e-06 1.121340361210303e-05)
(0.003243367497693045 1.190950871555474e-06 1.086560316031775e-05)
(0.003201991566986868 1.118849017104992e-06 1.060673702415686e-05)
(0.003162393909534927 1.087671791669483e-06 1.062507374797328e-05)
(0.003128868743253874 1.080239463177772e-06 1.079834832462506e-05)
(0.003092296945336136 1.018864368495479e-06 1.09267713925071e-05)
(0.003058110531724939 9.590617064021694e-07 1.079533820900725e-05)
(0.003025722426848639 9.076224203456768e-07 1.052535778807337e-05)
(0.002993630119174858 9.059865089994741e-07 1.048055291347375e-05)
(0.002962350085348721 8.888784429823187e-07 1.083088851806839e-05)
(0.002932177236037113 8.911838221145518e-07 1.133119723930414e-05)
(0.002903678235939825 8.739626079937511e-07 1.182803001350703e-05)
(0.002876915964424457 7.867850953758166e-07 1.207531333138102e-05)
(0.002852377730819157 6.680622155376532e-07 1.204154917302243e-05)
(0.002830123730268613 5.546563034134776e-07 1.187433056301009e-05)
(0.002810279746351378 4.169285000486592e-07 1.162026678718849e-05)
(0.002792476832306148 4.13592479330967e-07 1.119111257973442e-05)
(0.002777448513446395 3.85515974932637e-07 1.080097240934932e-05)
(0.00276619396324632 3.337971185664532e-07 1.029175181235878e-05)
(0.002759144636999933 3.243260099958683e-07 9.863115098566557e-06)
(0.002756057122186427 1.516383298714121e-07 9.55844245980464e-06)
(0.002757111874981103 -7.100382555655453e-08 9.391352006344744e-06)
(0.002762376901675441 -2.801542316007237e-07 9.275946535716639e-06)
(0.002772075265049337 -5.076234099045723e-07 9.171617688869834e-06)
(0.002785631829617101 -5.767645167539492e-07 9.133543479942176e-06)
(0.00280287193693783 -5.658165471460857e-07 9.202579517726332e-06)
(0.002819544164811708 -5.817650811961738e-07 9.362822366528966e-06)
(0.002845310718464703 -6.007593769453431e-07 9.370938279580694e-06)
(0.002875444594059302 -7.478588650200522e-07 9.340966936769906e-06)
(0.00290970235737188 -9.720439418522553e-07 9.320608333898689e-06)
(0.002948379116903462 -1.226291934733035e-06 9.333621902022058e-06)
(0.002985920113046342 -1.431756586026116e-06 9.392384974093661e-06)
(0.003031977520725383 -1.553725575678085e-06 9.44359420166675e-06)
(0.00308178863280173 -1.50921032995581e-06 9.525217331598387e-06)
(0.003129318644370878 -1.454747248963451e-06 9.516155771331142e-06)
(0.003184782107904604 -1.418050617597905e-06 9.519623425815972e-06)
(0.003237752964673918 -1.463012190955612e-06 9.597077643241793e-06)
(0.003298815769809861 -1.662404854777911e-06 9.687942225604865e-06)
(0.003357123852445067 -1.848953076432683e-06 9.857226804124303e-06)
(0.003422743859652793 -2.018374627535646e-06 1.011154064037225e-05)
(0.003484449634889865 -2.096457947666838e-06 1.029178294582048e-05)
(0.003547389979606959 -2.008422025874424e-06 1.039884829932669e-05)
(0.003617281822687806 -1.93062318627262e-06 1.045762889716262e-05)
(0.003682381869885208 -1.846409910276072e-06 1.044977360920471e-05)
(0.003747994859690091 -1.782875053903929e-06 1.043062152697991e-05)
(0.003813945420823239 -1.891906599269852e-06 1.040610700219998e-05)
(0.003886241705843812 -1.994219639553872e-06 1.043612849221715e-05)
(0.003952520976268708 -2.070877157970737e-06 1.045737640384459e-05)
(0.004018763607958671 -2.124772685743984e-06 1.041322388288104e-05)
(0.004084558884169837 -2.028123152180918e-06 1.03854019161368e-05)
(0.004149849217238641 -1.951411727183051e-06 1.037274683021793e-05)
(0.004214675405658763 -1.883934608480488e-06 1.037449530391336e-05)
(0.004278668356162611 -1.821833927998155e-06 1.040949813703577e-05)
(0.004341512055076768 -1.838563907181586e-06 1.043524386594419e-05)
(0.004402902351834658 -1.840721585807671e-06 1.046159720556961e-05)
(0.004462404005420776 -1.811435576723531e-06 1.05241072447375e-05)
(0.004519617130602106 -1.755830861557227e-06 1.058814470045073e-05)
(0.004574141320646053 -1.660656657091374e-06 1.066638476040358e-05)
(0.004625423531818518 -1.560666955447629e-06 1.07180788442133e-05)
(0.004672837689452781 -1.464065945776099e-06 1.077104965222003e-05)
(0.004715840331036852 -1.368605106588533e-06 1.082119458750159e-05)
(0.00475363791716073 -1.23035765119301e-06 1.088960570561506e-05)
(0.004793461662221103 -1.040649622177371e-06 1.095615856298668e-05)
(0.004819069103904416 -8.143203954697439e-07 1.095163250181323e-05)
(0.004845581251189895 -5.534054741711517e-07 1.097247835527392e-05)
(0.007967622545892771 -1.212231397371617e-06 1.855281086143908e-05)
(0.007975810410870296 -5.49301770707258e-07 1.864182561025502e-05)
(0.007986230161766949 2.621477491767988e-07 1.868766725359706e-05)
(0.007984151136969701 1.081309367229796e-06 1.869725288367806e-05)
(0.007976868870206925 1.869853264747003e-06 1.878298901879196e-05)
(0.007964456985333683 2.584950021699731e-06 1.902326521550587e-05)
(0.007931612375624984 3.522703493173037e-06 1.938067604239101e-05)
(0.007896824503179762 4.005643542908056e-06 1.980734322986513e-05)
(0.007849697771516992 4.773530085915016e-06 2.023339197600627e-05)
(0.007794077200107245 5.42220536654589e-06 2.06677783836731e-05)
(0.007730136009582509 6.009145249843113e-06 2.108988544707662e-05)
(0.00765710339906322 6.297240949375396e-06 2.153332753446784e-05)
(0.00757309144313275 6.740035333689141e-06 2.198708352942131e-05)
(0.007489276354438626 7.177485143532894e-06 2.25108372329701e-05)
(0.007403509264200499 7.342412254872283e-06 2.297901473701016e-05)
(0.007310573652207534 7.189900916166045e-06 2.323092431299563e-05)
(0.007218970332010124 7.420246761352154e-06 2.345838484533439e-05)
(0.00712244853839832 7.49446457847392e-06 2.347120318037485e-05)
(0.007032308931850888 7.54492384551969e-06 2.322459196856244e-05)
(0.006937093649753555 7.513986693017031e-06 2.281285186776043e-05)
(0.006842539463049981 7.290095813193853e-06 2.251239822830406e-05)
(0.006750200344129834 7.206527327302712e-06 2.229622840905068e-05)
(0.006662051565565366 6.974909708646758e-06 2.208735104361561e-05)
(0.00657828166970016 6.557422889217013e-06 2.188630469199417e-05)
(0.006489201604157678 6.467023957353047e-06 2.166577974458904e-05)
(0.006409964995279381 6.29829371930914e-06 2.157219538485334e-05)
(0.006327175167162626 6.020602062699485e-06 2.15718673369994e-05)
(0.006248503158603121 5.88425707485102e-06 2.18693306002742e-05)
(0.006173254812388232 5.795443582525672e-06 2.232578180207968e-05)
(0.006099353102911168 5.589003661657906e-06 2.240079070910652e-05)
(0.006030911817846547 5.21487514074478e-06 2.198304123682227e-05)
(0.005960054955306387 4.977991035069785e-06 2.144118967205448e-05)
(0.005896252831731248 4.862338218960232e-06 2.104374881185305e-05)
(0.005830968806748185 4.658474584957355e-06 2.050150264385499e-05)
(0.005768208313182492 4.562146419270311e-06 1.994690855790413e-05)
(0.005706812919760414 4.398062592087742e-06 1.936508316148187e-05)
(0.005648486112070009 4.244181359577285e-06 1.888045701608114e-05)
(0.005592539833873478 4.106667895399502e-06 1.878258432519734e-05)
(0.005539254933143181 3.947782762354574e-06 1.893869300837829e-05)
(0.005488043250346001 3.693567176531633e-06 1.9140655649514e-05)
(0.005436032475821362 3.494160511512683e-06 1.896494339092554e-05)
(0.005391074830995505 3.376356812262829e-06 1.859064299141303e-05)
(0.005342047488379163 3.353910759170266e-06 1.859122701836824e-05)
(0.005299724487301421 3.217754419639921e-06 1.917217464357823e-05)
(0.005253802201623709 3.097428234618473e-06 1.991164488634187e-05)
(0.00521548854616698 2.879314461209649e-06 2.071235465047282e-05)
(0.005175337089463903 2.649413140664798e-06 2.119956000221676e-05)
(0.005139089011378228 2.403983943108408e-06 2.125416183561062e-05)
(0.005106729748912657 2.261599773993258e-06 2.098590467446134e-05)
(0.005077433351592039 1.979246625770419e-06 2.040976300771093e-05)
(0.005051855086900667 1.778383728442639e-06 1.975541897346922e-05)
(0.005031093334119367 1.390401626870009e-06 1.911153383270556e-05)
(0.005016327987666003 8.271602513232189e-07 1.829065970444549e-05)
(0.00500833084830261 4.342727233695872e-07 1.752236316249033e-05)
(0.005002677101916353 2.565650188834364e-08 1.690015322496972e-05)
(0.005008219037249795 -4.821678641042965e-07 1.656340383628619e-05)
(0.005015600633467451 -7.825048815409582e-07 1.633629750447726e-05)
(0.005035009359642626 -1.267433120841577e-06 1.617529792183231e-05)
(0.005056451817300527 -1.726590602223101e-06 1.612363596471708e-05)
(0.005088813653468574 -2.072054505587427e-06 1.626167312078004e-05)
(0.005122849702112129 -2.602899263238436e-06 1.651702937446126e-05)
(0.005163690919925679 -3.173891569766929e-06 1.654971943207622e-05)
(0.005212546431212836 -3.665453582488418e-06 1.648812489634902e-05)
(0.005266506988851719 -3.929811305702743e-06 1.642768242259244e-05)
(0.0053285550225115 -4.450730930525517e-06 1.646308889965147e-05)
(0.005395427856150829 -4.683790651638382e-06 1.65597973389268e-05)
(0.0054691916362228 -5.16757522871066e-06 1.660405214838974e-05)
(0.00554372294754686 -5.40845822086113e-06 1.669631491546446e-05)
(0.005626741872302683 -5.752019888442759e-06 1.673534268945743e-05)
(0.005708951296574969 -6.101060574219415e-06 1.67282198570729e-05)
(0.005795312855230946 -6.392676521975881e-06 1.682974106225298e-05)
(0.005885567993363386 -6.584854216568223e-06 1.697885141412753e-05)
(0.005980597728196506 -6.897820677033008e-06 1.726725069155392e-05)
(0.006076922610643224 -7.005183573802353e-06 1.766309568128458e-05)
(0.006170257619371297 -7.063635117160358e-06 1.792223656980342e-05)
(0.006269653063986647 -7.265914717326741e-06 1.810772057134141e-05)
(0.006366782320924075 -7.271290290997612e-06 1.818096657801221e-05)
(0.006461776821705747 -7.500799194171985e-06 1.815937685175392e-05)
(0.006566169435889077 -7.44941693031092e-06 1.80905751906107e-05)
(0.006658226781530762 -7.513481134532533e-06 1.803916885030001e-05)
(0.006754623440130049 -7.452493086449318e-06 1.804236938364829e-05)
(0.006848779034905641 -7.264472343701902e-06 1.80576614385988e-05)
(0.006939048761788485 -7.272724040270038e-06 1.798919825197422e-05)
(0.007032380351122603 -7.251761996468842e-06 1.79115589969579e-05)
(0.007119835466355517 -7.101717038367508e-06 1.782803578765157e-05)
(0.007208524799585723 -7.135682946270808e-06 1.783686474671187e-05)
(0.007291924839312531 -6.940489070587439e-06 1.787109036963e-05)
(0.007371161110127245 -6.750916752328261e-06 1.788180373222274e-05)
(0.007447056220177608 -6.539760106938813e-06 1.789199014045526e-05)
(0.007520741520968075 -6.323587661866244e-06 1.795145191631284e-05)
(0.007588227352754558 -6.037924715598988e-06 1.79897061963672e-05)
(0.007650570730211131 -5.718856440389351e-06 1.805567872598054e-05)
(0.007714117062837181 -5.347325351119487e-06 1.815216316420059e-05)
(0.007763918279101286 -4.904873733935253e-06 1.821165923303063e-05)
(0.007814387920588729 -4.43163383779732e-06 1.826648237560482e-05)
(0.00785553518855866 -3.85367143621644e-06 1.8355867809454e-05)
(0.007887145656478856 -3.212455702584022e-06 1.841976656230413e-05)
(0.007922165549341409 -2.72924659904362e-06 1.844075323628319e-05)
(0.007947145465207677 -1.984782742423572e-06 1.846342286509416e-05)
(0.01094559814048736 -1.830403227357289e-06 2.596034974634429e-05)
(0.01095187410826062 -4.316561435528112e-07 2.606208493693492e-05)
(0.01095394682274934 1.108384957757995e-06 2.611571668591249e-05)
(0.01095200023079511 2.671239036287283e-06 2.61764886929347e-05)
(0.01094002171320282 4.202196966673289e-06 2.632427838986986e-05)
(0.01091824580799639 5.64537157924142e-06 2.662105143888975e-05)
(0.01088722957441952 7.053589300915871e-06 2.707552045883682e-05)
(0.01084399404542272 8.49323285921343e-06 2.760928894085116e-05)
(0.01078576499880035 9.731564484880472e-06 2.816635340054308e-05)
(0.01071585695114983 1.094800746660297e-05 2.879749330483589e-05)
(0.01064403707930953 1.179272103181169e-05 2.94220852651166e-05)
(0.01055535394237041 1.273382098408949e-05 3.004009635411903e-05)
(0.01045934991167695 1.354173102057349e-05 3.068553308458384e-05)
(0.01035890627849748 1.416238556157087e-05 3.135604397998371e-05)
(0.01025177768230301 1.443760014039161e-05 3.202267898623442e-05)
(0.01014437475289423 1.479297822343507e-05 3.251005301921274e-05)
(0.01003045160320314 1.500210691598509e-05 3.286071660058086e-05)
(0.009914989396823542 1.510327604334645e-05 3.298150733795066e-05)
(0.009800561837358708 1.510670111316994e-05 3.280716508475625e-05)
(0.00968891223529573 1.488915000462149e-05 3.242205885603823e-05)
(0.00957995350350146 1.459201361566561e-05 3.211275983250371e-05)
(0.009469446448167381 1.429585070318546e-05 3.186725835078404e-05)
(0.009362594465493654 1.398472679792141e-05 3.163292270718391e-05)
(0.009258057607951701 1.347609641559221e-05 3.135995099219123e-05)
(0.009159019204453134 1.316769997301516e-05 3.108495783175911e-05)
(0.009058602025164331 1.281369429808148e-05 3.094092683084952e-05)
(0.008963668289022331 1.233891224717835e-05 3.101121420433727e-05)
(0.008867458426307111 1.1926586456941e-05 3.143306806897303e-05)
(0.008778907928483636 1.160695557778512e-05 3.204989326650597e-05)
(0.008691017974846275 1.118381817925593e-05 3.22103554497472e-05)
(0.00860209560982822 1.059625701910205e-05 3.178970838696885e-05)
(0.008523035896550159 1.022411929887599e-05 3.117672755914921e-05)
(0.008443518775464152 9.940850121445575e-06 3.068453239757774e-05)
(0.008367035911866712 9.506068178577559e-06 3.011102051912748e-05)
(0.008294021654652317 9.256884201387356e-06 2.934214824637939e-05)
(0.008220994290487185 8.908928706201862e-06 2.854052527382625e-05)
(0.008150714775085654 8.547123623412117e-06 2.779586551837983e-05)
(0.008084096311591137 8.235769809521778e-06 2.739724402370988e-05)
(0.008020453983265915 7.916552067700941e-06 2.739238041369814e-05)
(0.007961483462068798 7.44070824486617e-06 2.755853972186221e-05)
(0.007901790865944364 7.035815360176176e-06 2.741712206578035e-05)
(0.00784922773402507 6.79058622488209e-06 2.705710296369743e-05)
(0.007794211195900935 6.67521602917143e-06 2.715777790545165e-05)
(0.007741605628703093 6.434682540967018e-06 2.791332363499944e-05)
(0.007687704307258128 6.146576014158363e-06 2.87434887197914e-05)
(0.007641617349667142 5.729620381847781e-06 2.953149009065919e-05)
(0.007595706630064434 5.295610209519068e-06 3.017793444064239e-05)
(0.007559112228278334 4.723088296958968e-06 3.04526724738093e-05)
(0.007522951246712408 4.251132959634227e-06 3.009952122685537e-05)
(0.007491443104773908 3.714602815760921e-06 2.92270049302525e-05)
(0.007465580312739264 3.115163040593977e-06 2.832584629735843e-05)
(0.007446163052523257 2.473373531373463e-06 2.751042236857922e-05)
(0.007430455571654119 1.487439789076529e-06 2.641017150968091e-05)
(0.007427805073438092 5.849309619184536e-07 2.535596646487982e-05)
(0.007430018783224121 -3.66266696888126e-07 2.44640780059341e-05)
(0.007445660378368003 -1.250379273577926e-06 2.387009323457156e-05)
(0.007464876181047754 -2.322376303575754e-06 2.355687678005287e-05)
(0.007494642452797136 -3.261015796408748e-06 2.341303595351385e-05)
(0.007529023356672318 -4.171156794337145e-06 2.334750051407415e-05)
(0.007575170438712956 -4.906858117263804e-06 2.354413288520169e-05)
(0.007626073883641383 -5.835850505430193e-06 2.385006448635838e-05)
(0.007686662352331021 -6.841928031786637e-06 2.392324070913418e-05)
(0.00775576857839372 -7.819700245349987e-06 2.384289321684399e-05)
(0.007834314183504594 -8.66576596723893e-06 2.381345365836168e-05)
(0.007918910805043764 -9.70310701145032e-06 2.390225998362711e-05)
(0.008009331220367327 -1.042935662849395e-05 2.395326630086059e-05)
(0.008106116303731599 -1.124202297337803e-05 2.394572927887371e-05)
(0.008209567270056844 -1.192845569836988e-05 2.400928257597042e-05)
(0.008317953838857561 -1.246016100095561e-05 2.406416904083689e-05)
(0.008426589961015791 -1.297298562939481e-05 2.412010506155804e-05)
(0.008540115453085487 -1.351101694894967e-05 2.424347584763348e-05)
(0.008659910219726626 -1.390225177498757e-05 2.445901769328489e-05)
(0.008776571777995571 -1.432495955973212e-05 2.484874173065892e-05)
(0.008895090740278803 -1.470792014704042e-05 2.534250129334213e-05)
(0.00901739987975447 -1.487623959470949e-05 2.565316135537765e-05)
(0.009141919475932327 -1.511355631595359e-05 2.58680757677574e-05)
(0.009258672887655559 -1.507532523677483e-05 2.597274509532945e-05)
(0.009378650599118032 -1.516616404858098e-05 2.597813659748703e-05)
(0.009498750216646135 -1.516277559067798e-05 2.587207844399766e-05)
(0.009610916041509911 -1.516058827162852e-05 2.582620355327489e-05)
(0.009722262533212697 -1.509432118846651e-05 2.580502029877022e-05)
(0.009834073086567505 -1.484922077995784e-05 2.576600089464628e-05)
(0.009941738897638089 -1.467949780537727e-05 2.567179729766675e-05)
(0.0100419616611865 -1.447727703166633e-05 2.550883276828898e-05)
(0.01013910842842575 -1.425242409692337e-05 2.536499511542558e-05)
(0.0102382182064555 -1.395597283887266e-05 2.536953661075131e-05)
(0.01032176847440711 -1.357694727771551e-05 2.540166898672009e-05)
(0.01040779760164129 -1.314327308192092e-05 2.542757936384123e-05)
(0.01048871257891017 -1.264391695846012e-05 2.54367514805772e-05)
(0.01056236537898191 -1.213034991621426e-05 2.54678746885164e-05)
(0.0106308247317823 -1.148772899588285e-05 2.545169980572344e-05)
(0.01069171563587494 -1.077429732256633e-05 2.547270936913364e-05)
(0.0107435735314923 -9.996732895959081e-06 2.554991622627611e-05)
(0.01078704118820763 -9.035919099095411e-06 2.560140792221685e-05)
(0.0108255629888274 -8.070329796703038e-06 2.562348519282168e-05)
(0.01085902738718545 -6.963737102243956e-06 2.56996297604399e-05)
(0.01088626515121166 -5.775093468707463e-06 2.577182344368699e-05)
(0.01091196777686087 -4.538149126977133e-06 2.582379676079135e-05)
(0.01093623632309755 -3.201353184069088e-06 2.588711055471022e-05)
(0.01372640952962103 -1.885849449937832e-06 3.309392175693953e-05)
(0.01371550191813901 4.088044834061508e-07 3.316097346975432e-05)
(0.01370609854133508 2.765672393333079e-06 3.32314398229249e-05)
(0.01369267672350914 5.134449782929103e-06 3.334710335625819e-05)
(0.01367616886161812 7.518860918260932e-06 3.356039981898524e-05)
(0.01364493785808661 9.978523289630044e-06 3.387384380761264e-05)
(0.0136024449639616 1.226249839068079e-05 3.432275727880526e-05)
(0.01354233298747365 1.456178983560147e-05 3.483560852164255e-05)
(0.01346951779527225 1.651267254420374e-05 3.544641650521473e-05)
(0.01338898820967001 1.836810481441331e-05 3.621303329672606e-05)
(0.01329538915634314 1.987218327502557e-05 3.699941657355305e-05)
(0.01319395402706429 2.125599792425839e-05 3.776407544283982e-05)
(0.01308124713252923 2.246633829930316e-05 3.851783267965868e-05)
(0.01296620574243649 2.345849216977546e-05 3.926683053393802e-05)
(0.01284431592431791 2.407215374842376e-05 4.004367874474764e-05)
(0.01271891450915296 2.459799796106885e-05 4.074430163152731e-05)
(0.01259268177611122 2.490929830702684e-05 4.127094331651135e-05)
(0.01246372460551917 2.500880262858994e-05 4.154555727657779e-05)
(0.0123364613598726 2.496478811248283e-05 4.159926956236427e-05)
(0.01220634297668222 2.452108574620263e-05 4.143802522370826e-05)
(0.01208580436507387 2.417663914834039e-05 4.120855760449524e-05)
(0.0119608327684997 2.366467459570521e-05 4.095193425703307e-05)
(0.01184452534737132 2.314794997655086e-05 4.06887875952643e-05)
(0.01172562920609446 2.24989782573679e-05 4.036409383289702e-05)
(0.011615816197915 2.186500363798362e-05 4.003910145745027e-05)
(0.01150350335377547 2.119574382945788e-05 3.987131856718948e-05)
(0.011400513586707 2.057682753956765e-05 4.007369653554878e-05)
(0.01129807811602613 1.984948937540797e-05 4.061080534971344e-05)
(0.01119786924892477 1.924111319157731e-05 4.119613960172589e-05)
(0.01110253399187824 1.851419871648749e-05 4.142587007929806e-05)
(0.01100927044210062 1.766239221929554e-05 4.122067257779862e-05)
(0.01092047653021586 1.701059507962739e-05 4.072550027185148e-05)
(0.01083331734444787 1.639172380342234e-05 4.01993133269513e-05)
(0.01075091264122035 1.568478944572758e-05 3.969656551531668e-05)
(0.01067385248459676 1.518575156187074e-05 3.878839263307687e-05)
(0.0105973716801159 1.46022949450134e-05 3.775516796859463e-05)
(0.01052604782530215 1.396532784659665e-05 3.676417280823147e-05)
(0.0104593033078981 1.341007200110004e-05 3.600558184744732e-05)