/*--------------------------------*- C++ -*----------------------------------*\
| =========                 |                                                 |
| \\      /  F ield         | OpenFOAM: The Open Source CFD Toolbox           |
|  \\    /   O peration     | Version:  v1812                                 |
|   \\  /    A nd           | Web:      www.OpenFOAM.com                      |
|    \\/     M anipulation  |                                                 |
\*---------------------------------------------------------------------------*/
FoamFile
{
    version     2.0;
    format      ascii;
    class       volVectorField;
    location    "0";
    object      C;
}
// * * * * * * * * * * * * * * * * * * * * * * * * * * * * * * * * * * * * * //

dimensions      [0 1 0 0 0 0 0];


internalField   nonuniform List<vector> 
14751
(
(8.954546133954754 3.034000089741324 0.05)
(8.863635946557393 3.034000124510496 0.05000000000000001)
(8.772726971594178 3.034000026634675 0.05)
(8.681818014430785 3.033999949549799 0.05)
(8.590909030448447 3.033999892463884 0.05)
(8.499999887976928 3.033999845106867 0.05)
(8.409090746119441 3.03399979280616 0.05000000000000001)
(8.318181803887697 3.033999764820312 0.05000000000000001)
(8.227272712181147 3.033999764169323 0.04999999999999999)
(8.136363602749999 3.033999764893654 0.05)
(8.045454508574869 3.03399976594866 0.05)
(7.954545991113297 3.033999844907282 0.05)
(7.863636939009888 3.034000007215778 0.04999999999999999)
(7.772727615514801 3.034000145705486 0.05000000000000001)
(7.681818510921722 3.034000252760507 0.05000000000000001)
(7.590909204886688 3.034000329974225 0.05)
(7.500000104669636 3.034000377771893 0.05)
(7.409091016029372 3.034000424032893 0.05000000000000002)
(7.318181926244571 3.034000469540229 0.05000000000000001)
(7.227272450146505 3.034000463257206 0.05)
(7.136363356508476 3.034000405481542 0.05)
(7.045454252149415 3.034000345988861 0.05)
(6.954545154723924 3.034000284249851 0.05)
(6.863635607906207 3.034000161730323 0.05)
(6.772726432141083 3.033999968244641 0.05000000000000002)
(6.681817627162128 3.033999801503005 0.05)
(6.590908552842199 3.033999674517716 0.05000000000000001)
(6.499999853039738 3.033999600768321 0.05)
(6.409090765790695 3.033999578279323 0.05)
(6.318181680435162 3.033999556025657 0.05)
(6.22727259343608 3.033999534032992 0.05)
(6.13636351022393 3.033999512525658 0.05000000000000001)
(6.045454424868214 3.033999491779327 0.05)
(5.95454533761901 3.033999471275659 0.05)
(5.863636248226396 3.033999450525658 0.05000000000000001)
(5.772727486647199 3.033999472529157 0.05)
(5.681818399655197 3.033999537529157 0.05)
(5.590909325668364 3.033999604275471 0.05)
(5.500000240070907 3.033999673018132 0.05)
(5.409091627920507 3.033999804774079 0.05)
(5.31818266335515 3.03400001551984 0.05)
(5.227273281595576 3.034000203767393 0.05000000000000002)
(5.136364170405815 3.034000350267467 0.05)
(5.045454623245737 3.03400043326464 0.05)
(4.954545533996699 3.034000455760976 0.05000000000000001)
(4.863636442603254 3.034000478010977 0.05000000000000002)
(4.772727354748594 3.03400050025731 0.05)
(4.681818257171778 3.034000521757314 0.05)
(4.590909169067038 3.034000542507313 0.05000000000000002)
(4.50000007906787 3.034000563499981 0.05)
(4.409090986924205 3.034000584253648 0.05)
(4.318181741325795 3.034000584257313 0.05)
(4.227272649432127 3.034000563507313 0.05)
(4.136363559682963 3.034000542510978 0.05)
(4.045454471828221 3.034000521757313 0.05000000000000001)
(3.954545374501405 3.034000500260975 0.04999999999999999)
(3.863636287146745 3.034000478014642 0.05000000000000001)
(3.772727196003301 3.034000455760975 0.05)
(3.681818106754261 3.034000433264641 0.05)
(3.590908567421002 3.034000351271156 0.05)
(3.499999458874186 3.034000207017422 0.05)
(3.409090075968322 3.034000021023541 0.05)
(3.318181109758106 3.033999812024101 0.05)
(3.227272494071648 3.033999681279135 0.05)
(3.136363410617615 3.033999613275475 0.05000000000000002)
(3.045454334737112 3.033999547279159 0.05)
(2.954545249888407 3.033999483032829 0.05)
(2.863636424434219 3.033999453529341 0.05)
(2.772727337684266 3.033999458533009 0.05)
(2.681818251184314 3.033999463533009 0.05)
(2.590909164434361 3.033999468529341 0.05000000000000002)
(2.500000079827852 3.033999473779341 0.05)
(2.409090991184461 3.033999479025673 0.05000000000000001)
(2.318181904184507 3.033999484033008 0.05)
(2.227272819078014 3.033999489275673 0.05000000000000001)
(2.136363738258463 3.033999495540344 0.05)
(2.045454649615084 3.033999502272006 0.05)
(1.954545562115166 3.033999508779341 0.05000000000000001)
(1.863636471721763 3.033999515007336 0.05000000000000001)
(1.772727385508809 3.033999521507335 0.05000000000000001)
(1.681818287828416 3.033999527727996 0.05)
(1.590909194471974 3.033999533459658 0.05000000000000001)
(1.500000097578536 3.033999539224328 0.05000000000000001)
(1.409091134125523 3.03399956219493 0.05)
(1.318182039522209 3.033999602974268 0.05000000000000001)
(1.22727295045626 3.033999644720596 0.05000000000000002)
(1.136363851066018 3.033999686933925 0.05)
(1.045454957342006 3.033999755959295 0.05)
(0.9545458719413824 3.03399985367663 0.05000000000000001)
(0.8636369935546124 3.033999982438477 0.05)
(0.7727278026407489 3.034000129092321 0.05000000000000002)
(0.6818181410484583 3.034000191648438 0.05000000000000001)
(0.5909090414368807 3.034000181668237 0.05)
(0.4999999304679515 3.034000171815947 0.05)
(0.409090856784051 3.034000164659487 0.05000000000000001)
(0.3181816795862189 3.034000146741531 0.05)
(0.2272726136533559 3.034000118846769 0.05)
(0.1363634588243411 3.034000083326545 0.05000000000000002)
(0.04545431630986752 3.034000030249481 0.05000000000000002)
(8.954549720880284 3.029911083193263 0.05)
(8.863626718136564 3.029910326350527 0.05)
(8.772712075375495 3.029906276391328 0.05)
(8.681794949057085 3.029899887207059 0.05)
(8.590881519049535 3.029891513001334 0.05000000000000001)
(8.499969376823765 3.029882303589212 0.05)
(8.409055008748778 3.029872573228112 0.05000000000000002)
(8.318141702693403 3.029862493144257 0.05)
(8.227228741809654 3.029852330201081 0.05000000000000001)
(8.136316459285313 3.029842095894323 0.05)
(8.045404586180659 3.029831842801289 0.05)
(7.954493406981596 3.029821823806248 0.05000000000000001)
(7.86358212544664 3.029812112346105 0.05000000000000001)
(7.772671063380177 3.029802495710562 0.05)
(7.681760631537355 3.029793016265141 0.05)
(7.590850636542773 3.029783694790512 0.05000000000000001)
(7.49994187632205 3.029774572578729 0.05)
(7.409033800488215 3.029765748201784 0.05)
(7.318126597805343 3.029757226928012 0.04999999999999999)
(7.227219723363413 3.029748899633776 0.05000000000000001)
(7.136313435385265 3.029740771649078 0.05000000000000001)
(7.045407295304909 3.0297329847471 0.05000000000000002)
(6.954501150166719 3.029725554362061 0.05)
(6.863594735533094 3.029718348443806 0.05)
(6.772688393610327 3.029711348119527 0.05)
(6.681781971384162 3.029704776850337 0.05)
(6.590875417409665 3.029698656298233 0.05)
(6.499968893789478 3.029693025085571 0.05)
(6.409062116174641 3.029687870810923 0.05000000000000001)
(6.318155222150605 3.0296830600578 0.05)
(6.22724822232946 3.029678582814636 0.05)
(6.136341111421002 3.029674429111723 0.05000000000000001)
(6.045433892039186 3.029670587165381 0.05)
(5.954526572366154 3.029667044006643 0.05)
(5.863619158632447 3.029663787369393 0.05)
(5.772711793517818 3.029660913528961 0.05)
(5.681804194642313 3.029658410192874 0.05)
(5.590896511557409 3.029656160381172 0.05000000000000001)
(5.499988746563295 3.029654152351948 0.05000000000000002)
(5.40908107206882 3.029652521605998 0.05000000000000001)
(5.318173167408073 3.029651289378721 0.05)
(5.227265174644044 3.029650213157309 0.05)
(5.136357165220893 3.029649246971826 0.05)
(5.045448924949649 3.029648316543823 0.05)
(4.95454083062223 3.029647421416227 0.05)
(4.863632707540366 3.029646705807889 0.05000000000000001)
(4.772724545984323 3.029646164227553 0.05)
(4.681816379403509 3.029645791912611 0.05)
(4.590908186794685 3.029645586621746 0.05)
(4.499999993540771 3.029645547859377 0.05)
(4.409091806471199 3.029645676125476 0.05000000000000001)
(4.318183540741001 3.02964591865423 0.05000000000000001)
(4.227275369924157 3.029646276469319 0.05000000000000002)
(4.136367218600898 3.0296468057997 0.05000000000000001)
(4.045459082715562 3.029647509658295 0.05)
(3.954550991164286 3.029648391036111 0.05000000000000001)
(3.863642925574757 3.029649455441621 0.05)
(3.772734914397255 3.02965071037427 0.04999999999999999)
(3.681826951182723 3.029652163825189 0.05)
(3.590918865173231 3.029653677082191 0.05)
(3.500011027703175 3.029655254093171 0.05)
(3.409103222695422 3.029656968396876 0.05)
(3.318195525085944 3.029658866953695 0.05)
(3.2272880747964 3.029661193757383 0.05)
(3.136380552496676 3.029663930380154 0.05)
(3.045473129313228 3.029666943515926 0.05000000000000001)
(2.954565801698022 3.029670245423936 0.05)
(2.863658694667242 3.029673932096003 0.05)
(2.772751586683142 3.029678016799963 0.05000000000000001)
(2.681844576918444 3.029682424040772 0.05)
(2.590937690642154 3.029687165044409 0.05)
(2.500030901806833 3.029692250075343 0.05)
(2.409124242150551 3.029697687863596 0.05)
(2.318217683178351 3.029703486419591 0.05)
(2.227311214006286 3.029709647990329 0.05)
(2.136404853724713 3.029716175315009 0.05)
(2.045498627507715 3.029723074399794 0.05)
(1.954592457163272 3.029730341791588 0.05)
(1.863686428497218 3.029737979164305 0.05000000000000002)
(1.772780144038099 3.029745969416295 0.05)
(1.681873706363375 3.029754310819052 0.05)
(1.590966502566771 3.029762992742999 0.05)
(1.500058624785366 3.02977198251561 0.05)
(1.409149833409667 3.02978130118799 0.05)
(1.318240077262487 3.029790912876186 0.05000000000000001)
(1.227329581659757 3.029800744556379 0.05)
(1.136418636222818 3.029810768371088 0.05000000000000001)
(1.04550737127744 3.029820998636291 0.05)
(0.9545959043012442 3.029831383005485 0.05)
(0.8636840531365683 3.029841860167255 0.05)
(0.7727719021142994 3.029852362041166 0.05)
(0.6818586329942883 3.029862578817395 0.05)
(0.5909446542757483 3.029872361140245 0.05)
(0.5000309199371407 3.029881748250064 0.05)
(0.4091166404314724 3.029890456842564 0.05)
(0.318204282319307 3.029898211928697 0.05)
(0.2272903041913596 3.029904578224186 0.05)
(0.1363746354497376 3.029908877599633 0.05)
(0.04545454799516151 3.02991037573962 0.05000000000000001)
(8.954552688228677 3.025640040404687 0.05)
(8.863621376006812 3.025636962622487 0.05000000000000001)
(8.772706390854404 3.025622209404483 0.05000000000000001)
(8.681787558878458 3.025598615579243 0.05)
(8.590871589147847 3.025567493306978 0.05)
(8.499953799091871 3.025533118538624 0.05000000000000001)
(8.409029359285256 3.025496737277721 0.05)
(8.318105152217589 3.025458810764679 0.05)
(8.227181769623579 3.025420319191626 0.05)
(8.136260292476289 3.025381486160042 0.05000000000000002)
(8.045340085820076 3.025342522488396 0.05)
(7.954421062548667 3.025303921549102 0.05000000000000001)
(7.863502096082573 3.025265932649984 0.05)
(7.772583735613597 3.025228386657245 0.04999999999999999)
(7.681667109789216 3.025191491118787 0.05)
(7.590752623451776 3.025155326037744 0.05)
(7.499841874123552 3.025120053720999 0.05000000000000001)
(7.40893412093536 3.025085886928728 0.05000000000000001)
(7.318029439334659 3.025052847517609 0.05000000000000001)
(7.22712677230382 3.025020840700542 0.05)
(7.136225750140529 3.024989891180625 0.05)
(7.045325285714367 3.024960236267305 0.05)
(6.954424709312921 3.024931939225407 0.05)
(6.863523673154648 3.024904856560835 0.05)
(6.77262242431571 3.024878982006047 0.05)
(6.681720766606352 3.024854580971585 0.05)
(6.590818788717614 3.02483166306932 0.05)
(6.499916531040526 3.024810288520913 0.05)
(6.409013853023441 3.02479042502152 0.05000000000000001)
(6.318110825294728 3.024771880502803 0.05)
(6.227207467693712 3.024754618948883 0.05)
(6.136303774276931 3.024738601142657 0.05)
(6.045399776104568 3.024723783083054 0.05000000000000002)
(5.954495471917913 3.024710119267715 0.05)
(5.863590891202279 3.024697564959763 0.05)
(5.772686135911327 3.024686222495061 0.05)
(5.681781030081269 3.024676043721162 0.05000000000000001)
(5.590875693686145 3.024666838979508 0.05)
(5.499970129257283 3.024658562006176 0.05000000000000002)
(5.409064461966069 3.024651356620836 0.05000000000000001)
(5.318158486361907 3.024645208709653 0.05)
(5.227252416329091 3.024639808335607 0.05)
(5.136346184257937 3.024635094752167 0.05)
(5.045439718737037 3.024630926685132 0.05)
(4.954533246342348 3.024627283691711 0.05)
(4.863626694187304 3.024624342491296 0.05000000000000001)
(4.772720055069597 3.024622081589056 0.05)
(4.681813381780453 3.024620486723022 0.05)
(4.590906656123004 3.0246195491576 0.05)
(4.499999924476723 3.024619262384028 0.05)
(4.409093189485963 3.024619629147264 0.05)
(4.318186422325441 3.024620576720297 0.05)
(4.227279741709348 3.024622110327819 0.05000000000000001)
(4.136373113186962 3.024624315230498 0.05)
(4.04546654245133 3.024627200928025 0.05000000000000001)
(3.954560074586189 3.024630784667333 0.05)
(3.863653691542285 3.024635086944056 0.05)
(3.772747450173135 3.02464013301764 0.05000000000000001)
(3.681841342250732 3.024645955127794 0.05)
(3.590935290581559 3.024652390079402 0.04999999999999999)
(3.500029527645933 3.024659469018621 0.05)
(3.409123983142998 3.024667339258911 0.05000000000000001)
(3.318218589009212 3.024676069263267 0.05000000000000001)
(3.227313549174314 3.024685974972687 0.05)
(3.136408670516253 3.024697077513515 0.05000000000000001)
(3.045504069816862 3.024709239822453 0.05000000000000001)
(2.954599745617496 3.024722509395072 0.05)
(2.863695801220578 3.024737046636815 0.05000000000000001)
(2.772792102987063 3.02475290220552 0.05000000000000001)
(2.681888724186226 3.024770001253754 0.05000000000000001)
(2.590985697047999 3.024788386046367 0.05)
(2.500082994133526 3.024808091782719 0.05000000000000002)
(2.409180663250954 3.024829150264264 0.05)
(2.318278673866559 3.024851589924807 0.05)
(2.227377009807754 3.024875414302388 0.05)
(2.136475695576601 3.024900625353516 0.05)
(2.045574788776593 3.02492724462228 0.05)
(1.954674162428215 3.024955258928615 0.05000000000000001)
(1.863773906583864 3.024984672019196 0.05)
(1.772872980665725 3.025015413659252 0.05000000000000002)
(1.681971032330899 3.025047474075224 0.05)
(1.591066581536743 3.025080808857278 0.05000000000000001)
(1.500159422880104 3.025115283569483 0.05)
(1.409248846365039 3.025150867643903 0.05)
(1.318334913009774 3.025187414323704 0.05000000000000001)
(1.227418336886611 3.025224740869601 0.05000000000000001)
(1.136500204826358 3.02526273872279 0.05)
(1.045581219079672 3.025301302452162 0.05)
(0.9546619529172869 3.025340222615628 0.05000000000000001)
(0.8637417948951384 3.025379257166485 0.05)
(0.7728207013788916 3.025418223061577 0.05)
(0.6818971458456139 3.025456556099663 0.05)
(0.5909718794135097 3.025493615919638 0.05000000000000001)
(0.5000481700470278 3.025529115202409 0.05)
(0.4091262635726742 3.025561983391079 0.05)
(0.3182115889535297 3.025591269553414 0.05000000000000001)
(0.2272974371761426 3.025615378982059 0.05000000000000002)
(0.1363807983230618 3.025631770185404 0.05000000000000002)
(0.0454544677287502 3.025637714988868 0.05)
(8.954554033297466 3.021179366929884 0.05000000000000001)
(8.863619304595044 3.021172699133037 0.04999999999999999)
(8.772707824161401 3.0211419211636 0.05000000000000002)
(8.681791787973399 3.021092718277264 0.04999999999999999)
(8.59087462452055 3.021027802543566 0.05)
(8.499948974284431 3.020955916284758 0.05)
(8.409010413286872 3.020879684939935 0.05000000000000001)
(8.318069950813291 3.020799985693415 0.05)
(8.227130607798188 3.020718853708566 0.05000000000000001)
(8.136194746946455 3.020636860078202 0.05)
(8.045261315606997 3.020554456757532 0.05)
(7.954329473178529 3.020472441073989 0.05)
(7.863397897052173 3.020391335070837 0.05)
(7.772467332376656 3.020311115963494 0.05000000000000001)
(7.681540017643237 3.02023224178477 0.05)
(7.590617552419222 3.020154903603721 0.05)
(7.499702508954359 3.02007945786438 0.05000000000000001)
(7.408794213514204 3.02000627526892 0.05)
(7.317892414583431 3.019935414315715 0.05000000000000002)
(7.226995369088598 3.019866856622345 0.05)
(7.136101686841457 3.019800665416061 0.05)
(7.045209250881826 3.019737186295264 0.05000000000000001)
(6.954316565804334 3.019676562071457 0.05)
(6.863423187426779 3.019618690428967 0.05)
(6.772529101508091 3.019563589964789 0.05)
(6.681634223778969 3.019511527137427 0.05)
(6.590738739361122 3.019462503309176 0.05000000000000001)
(6.499842511814707 3.019416589710155 0.05000000000000001)
(6.408945637480151 3.019373727523528 0.04999999999999999)
(6.318048085733075 3.019333686925577 0.05)
(6.227149883716828 3.019296396679072 0.05000000000000001)
(6.136251032930598 3.019261774337231 0.05)
(6.045351586835416 3.019229729865027 0.05000000000000001)
(5.954451555800283 3.019200171339609 0.05)
(5.863550984945543 3.019173004991084 0.05000000000000001)
(5.772649907448407 3.019148303171423 0.05000000000000001)
(5.681748331757574 3.0191259637446 0.05)
(5.590846306286581 3.019105726043018 0.05)
(5.49994385928628 3.019087491339515 0.05)
(5.409040989116704 3.019071360684961 0.05000000000000002)
(5.318137810923708 3.019057267759715 0.05)
(5.227234416434726 3.019044875080879 0.05000000000000001)
(5.136330684129161 3.019034097963918 0.05)
(5.045426729586107 3.019024729839809 0.05000000000000001)
(4.954522552622363 3.01901671929991 0.05000000000000001)
(4.86361821830363 3.01901023580765 0.05000000000000001)
(4.772713723468399 3.019005232863201 0.05000000000000001)
(4.681809160039052 3.019001681730566 0.05000000000000001)
(4.590904503725966 3.018999564141756 0.05000000000000001)
(4.499999828101849 3.018998864350101 0.04999999999999999)
(4.409095152487981 3.018999587887537 0.05)
(4.318190484890646 3.019001650470872 0.05000000000000001)
(4.227285910692594 3.019005065107297 0.04999999999999999)
(4.136381428212704 3.01900994129762 0.05000000000000002)
(4.045477065872104 3.019016298534992 0.05)
(3.954572890738718 3.019024177071337 0.05000000000000001)
(3.863668888339393 3.019033620153794 0.05000000000000001)
(3.772765140881877 3.019044680272773 0.05)
(3.681861654155018 3.019057426926973 0.05)
(3.590958489231883 3.019071715406754 0.05)
(3.500055653404883 3.019087618614134 0.05000000000000001)
(3.409153259722822 3.019105360587037 0.05)
(3.318251186616285 3.019125043793638 0.05)
(3.227349524156795 3.019147018429273 0.05)
(3.136448388559844 3.019171363588559 0.05)
(3.045547777885098 3.019197990449908 0.05000000000000001)
(2.954647712113625 3.019226999998752 0.05)
(2.863748233881343 3.019258617638112 0.05)
(2.772849369144142 3.019292948498338 0.05000000000000001)
(2.681951124645834 3.019329949500988 0.05)
(2.591053561650825 3.019369707617094 0.05)
(2.500156645297066 3.019412292318962 0.05)
(2.409260447603284 3.019457765119214 0.05)
(2.318364934447251 3.019506180205514 0.05000000000000002)
(2.227470086279147 3.019557537892546 0.05000000000000001)
(2.136575934420307 3.019611832097606 0.05)
(2.045682553146591 3.019669100618919 0.05)
(1.954789795210001 3.019729307873091 0.04999999999999999)
(1.863897657466122 3.019792452833322 0.04999999999999999)
(1.773004254762104 3.019858377048022 0.05000000000000001)
(1.682108264939294 3.019927049447921 0.05000000000000001)
(1.591207123991721 3.019998365567295 0.05)
(1.500300001976702 3.020072026466567 0.05)
(1.409385578357367 3.020147899517638 0.05000000000000001)
(1.318464096048886 3.020225659926077 0.05)
(1.22753711086914 3.020304964027374 0.05000000000000001)
(1.136606920230754 3.020385572441675 0.05)
(1.045675250025706 3.020467171737704 0.05)
(0.9547433574421076 3.020549311884309 0.05)
(0.8638100682770185 3.020631486252547 0.05000000000000002)
(0.7728748777311005 3.020713333651849 0.05)
(0.6819356827151182 3.020793974759551 0.05)
(0.5909937553580963 3.020872036574839 0.05)
(0.500055625645049 3.020946688454326 0.05)
(0.4091240356828338 3.021015700023398 0.05000000000000001)
(0.3182076872073779 3.021077131798316 0.05)
(0.2272969059113419 3.021127698685814 0.05000000000000001)
(0.1363834384769479 3.021162122311951 0.05000000000000001)
(0.04545458710821241 3.021174717738988 0.05000000000000001)
(8.954554713061043 3.016521213569479 0.05000000000000001)
(8.863619213206546 3.016509763166711 0.05)
(8.772714179850796 3.016458647991221 0.05)
(8.681804695944507 3.016377222919084 0.05000000000000002)
(8.59088737391407 3.016269960029784 0.05)
(8.499951980917983 3.016150915601038 0.05000000000000001)
(8.408995928565064 3.016024435746151 0.05)
(8.318034642586669 3.01589194395778 0.05)
(8.227074679098845 3.01575679346722 0.05)
(8.136120036282698 3.015620011905143 0.05)
(8.045169200855957 3.015482358658863 0.05)
(7.954220527081585 3.015344993149779 0.05)
(7.863272022584545 3.01520879115266 0.04999999999999999)
(7.772324902852406 3.01507395379163 0.05)
(7.681382963703284 3.014941258082597 0.05000000000000002)
(7.590449295809355 3.014811055513609 0.05)
(7.499527865414533 3.014683958634321 0.05)
(7.408618166908289 3.014560537761456 0.05000000000000001)
(7.317719450986899 3.014440908723171 0.05)
(7.226829048159861 3.014325177863983 0.05000000000000001)
(7.135944436529514 3.014213466012402 0.05)
(7.04506203554728 3.014106243801373 0.05)
(6.954179235472458 3.014003762043687 0.05)
(6.863295296058145 3.01390599917977 0.04999999999999999)
(6.772410237652739 3.013813006845574 0.05)
(6.681523985428853 3.013725035408095 0.05)
(6.590636686870122 3.013642090558096 0.05)
(6.499748232720461 3.013564246740304 0.05000000000000001)
(6.408858704251729 3.013491414085588 0.05000000000000002)
(6.317968088985012 3.013423338351089 0.05000000000000001)
(6.227076425044032 3.013359907523582 0.05)
(6.136183728411618 3.013300986917368 0.05)
(6.045290066026494 3.013246430050545 0.05)
(5.954395465338167 3.01319608746328 0.05000000000000001)
(5.863499995079297 3.013149804699604 0.05)
(5.772603712390668 3.013107598875324 0.05)
(5.681706633972543 3.013069299573037 0.05)
(5.590808834893012 3.013034572658193 0.05)
(5.499910367185466 3.013003252927104 0.05)
(5.409011269780748 3.012975364441082 0.05)
(5.31811163787721 3.012950779626268 0.05000000000000002)
(5.227211591075508 3.012929151552883 0.05000000000000001)
(5.136311053252762 3.012910356736038 0.05)
(5.045410145417352 3.012894126395121 0.05)
(4.954508900742236 3.01288037062524 0.05)
(4.863607397902068 3.012869225146898 0.05)
(4.772705655855916 3.012860610960777 0.05000000000000001)
(4.681803783481724 3.012854480827183 0.05)
(4.59090177671415 3.012850803987048 0.05)
(4.499999730692544 3.012849552208681 0.05)
(4.409097684072691 3.012850735235231 0.05)
(4.318195669584605 3.012854263078277 0.05000000000000001)
(4.227293778815468 3.012860157702081 0.05)
(4.136392047806567 3.01286855163484 0.05000000000000002)
(4.045490510505783 3.01287947787468 0.05)
(3.954589259820463 3.012893005636688 0.05)
(3.863688303822697 3.012909208180733 0.05000000000000001)
(3.772787742667033 3.012928172984665 0.05000000000000001)
(3.681887606447486 3.012950017318052 0.05)
(3.590987961138742 3.012974644186276 0.05)
(3.500088862982751 3.013002179488839 0.05)
(3.409190417385569 3.013032923978118 0.05)
(3.318292560196866 3.013067030409182 0.05000000000000001)
(3.227395398947784 3.013104867918373 0.05)
(3.136499038660083 3.013146583640838 0.05000000000000001)
(3.045603508647697 3.013192171430705 0.05)
(2.954708854738791 3.013241799302261 0.05000000000000001)
(2.863815145260726 3.01329576107082 0.05)
(2.772922411105713 3.013354229710548 0.05000000000000001)
(2.682030684328815 3.013417214548737 0.05000000000000001)
(2.591140037415363 3.013484856323055 0.05000000000000001)
(2.500250447568107 3.013557264495893 0.05)
(2.409362001624683 3.013634534791623 0.05)
(2.318474660690071 3.013716748935772 0.05000000000000001)
(2.227588410262078 3.013803897504811 0.05000000000000001)
(2.136703275447691 3.013895958868562 0.05000000000000001)
(2.045819336542027 3.013992983309695 0.05)
(1.95493645340207 3.01409490018068 0.05000000000000001)
(1.864054444146626 3.014201694027778 0.05)
(1.773170381132309 3.01431308780407 0.05)
(1.682281542344779 3.014429014287499 0.05)
(1.591384091164674 3.014549284576893 0.05000000000000001)
(1.500476295555987 3.014673384070206 0.05)
(1.409556173527612 3.014801034188176 0.05000000000000001)
(1.318624133251728 3.014931675036017 0.05)
(1.227682903630695 3.015064756251035 0.05)
(1.136736395073099 3.015199863036705 0.05)
(1.045787824800076 3.015336401382725 0.05)
(0.9548391241511978 3.015473613167719 0.05)
(0.8638886077557518 3.015610663402139 0.05)
(0.7729349942145838 3.015746954458814 0.05000000000000002)
(0.681975406971845 3.015881231726569 0.05000000000000001)
(0.5910123224954124 3.016011208774759 0.05000000000000001)
(0.5000560645009184 3.016135340547903 0.05000000000000001)
(0.4091130397515529 3.01624995556457 0.05)
(0.3181954006333009 3.016351879124628 0.05000000000000001)
(0.2272907132532807 3.016435730682626 0.05000000000000001)
(0.1363835087862662 3.016492835777277 0.05000000000000001)
(0.04545458020067598 3.016513814742842 0.05)
(8.954555038672341 3.011657677396382 0.05000000000000001)
(8.863620396015779 3.011640281926166 0.05)
(8.772724086446651 3.011565035221068 0.05000000000000001)
(8.681824220702934 3.011445964715549 0.05)
(8.590907500841759 3.011289622368539 0.05000000000000002)
(8.499960756423041 3.011115745942746 0.05000000000000001)
(8.408984375052382 3.010930666822019 0.05000000000000001)
(8.317998478761192 3.01073650209304 0.05000000000000001)
(8.227013961544817 3.010538123130933 0.05)
(8.136036789933112 3.010337111101187 0.05000000000000001)
(8.045064984727473 3.010134590722933 0.05)
(7.954095811834847 3.009932148072129 0.05)
(7.863126682795478 3.009731075107896 0.05000000000000002)
(7.772159322151425 3.009531844074227 0.05)
(7.68119934469402 3.009335609785305 0.05000000000000001)
(7.590251781622505 3.009142933242988 0.05)
(7.499322122242614 3.008954733526123 0.05)
(7.40841023812352 3.008771820366097 0.04999999999999999)
(7.317514745151237 3.008594386888038 0.05000000000000002)
(7.226631953521715 3.008422699398006 0.05000000000000002)
(7.135757875036489 3.008256953414874 0.05000000000000002)
(7.044887215567381 3.008097762498976 0.05000000000000001)
(6.954016017431829 3.007945509609635 0.05)
(6.863143208522152 3.007800270693899 0.05)
(6.772268795357986 3.007662141301622 0.05)
(6.6813927148659 3.00753137003839 0.05)
(6.590515085975977 3.007407974884256 0.05)
(6.499635776177422 3.007292025201652 0.05)
(6.408754954875493 3.007183399469218 0.05000000000000002)
(6.317872567751968 3.007081822905792 0.05)
(6.226988668483624 3.00698713824894 0.05)
(6.136103287295566 3.006899153109886 0.05)
(6.045216505460517 3.006817655999265 0.05)
(5.954328375604019 3.006742430481831 0.05000000000000001)
(5.863438984976686 3.006673252379727 0.05)
(5.772548385126891 3.006610068805418 0.05)
(5.681656672984276 3.00655262911746 0.05000000000000001)
(5.590763927023389 3.006500519478011 0.05)
(5.499870213939701 3.006453497399024 0.05)
(5.408975585784521 3.006411498225519 0.05000000000000001)
(5.318080199338515 3.006374323679465 0.05)
(5.227184162556131 3.00634160456724 0.05000000000000001)
(5.136287458383932 3.006313169903448 0.05)
(5.045390249340898 3.006288691941815 0.05000000000000001)
(4.954492522533901 3.006268035261854 0.05)
(4.863594412444967 3.006251288107029 0.05000000000000001)
(4.772695972451293 3.006238333955927 0.05000000000000001)
(4.681797325720538 3.006229103595179 0.05000000000000001)
(4.590898500340226 3.006223550533487 0.05000000000000001)
(4.499999609226415 3.006221632512013 0.05000000000000001)
(4.409100719135454 3.006223363785665 0.05)
(4.318201892151351 3.006228651597795 0.05)
(4.227303228292741 3.00623752795832 0.05)
(4.136404788719074 3.006250149102087 0.05)
(4.045506640910795 3.006266565018505 0.05)
(3.954608900336885 3.006286878942363 0.05)
(3.863711590875349 3.00631119937516 0.05)
(3.772814848083335 3.006339655544779 0.05000000000000001)
(3.681918720858927 3.006372421408866 0.05000000000000002)
(3.591023346751686 3.006409463272869 0.05)
(3.500128718458413 3.006450969232048 0.05000000000000001)
(3.409235000705571 3.006497315568297 0.05)
(3.318342177535634 3.006548716500719 0.05000000000000001)
(3.227450349478249 3.006605573919223 0.05000000000000001)
(3.136559682616396 3.006668113638643 0.05)
(3.045670214193098 3.006736424061148 0.05)
(2.954782010333486 3.006810750105768 0.05)
(2.863895132791948 3.006891460416957 0.05000000000000001)
(2.773009689176013 3.006978805832226 0.05)
(2.682125699475107 3.007072860515023 0.05000000000000002)
(2.591243261976755 3.007173826118221 0.05000000000000002)
(2.500362352186385 3.007281855884931 0.05)
(2.409483075434204 3.007397082269251 0.05)
(2.318605398525638 3.007519615724848 0.05)
(2.227729293069963 3.007649430914431 0.05000000000000002)
(2.136854782202738 3.007786482609364 0.05)
(2.045981952525383 3.00793082937468 0.05)
(1.955110656689178 3.008082353937346 0.05000000000000001)
(1.864240489616186 3.008241016000984 0.05)
(1.773367298396446 3.00840639678686 0.05000000000000002)
(1.682486607555108 3.008578377575002 0.05)
(1.591593129984116 3.008756664129908 0.04999999999999999)
(1.500684009219054 3.008940486410321 0.05)
(1.409756515274615 3.009129383713965 0.05000000000000001)
(1.318811299269991 3.009322515634555 0.05)
(1.227852519129874 3.009519082840777 0.05000000000000002)
(1.136886024937763 3.009718454125233 0.05)
(1.04591685234041 3.009919699840585 0.05000000000000001)
(0.9549477561610156 3.010121696688897 0.05000000000000001)
(0.8639764749985395 3.010323231735574 0.05)
(0.7730007549397322 3.010523423788263 0.05)
(0.682016948645933 3.010720569445367 0.05000000000000001)
(0.5910289141570473 3.010911328142907 0.05)
(0.5000514218209433 3.011093308943396 0.05000000000000002)
(0.4090954463926041 3.011261183519329 0.05)
(0.3181768174614011 3.011410335184514 0.05000000000000001)
(0.2272803397422202 3.011532970628604 0.05000000000000001)
(0.1363817950368317 3.011616509941253 0.05)
(0.04545457078545725 3.011647253739272 0.05000000000000001)
(8.954555081997839 3.006580690452366 0.05000000000000001)
(8.863622856276555 3.00655621859318 0.05)