/*--------------------------------*- C++ -*----------------------------------*\
| =========                 |                                                 |
| \\      /  F ield         | OpenFOAM: The Open Source CFD Toolbox           |
|  \\    /   O peration     | Version:  v1812                                 |
|   \\  /    A nd           | Web:      www.OpenFOAM.com                      |
|    \\/     M anipulation  |                                                 |
\*---------------------------------------------------------------------------*/
FoamFile
{
    version     2.0;
    format      ascii;
    class       volScalarField;
    location    "0";
    object      Cy;
}
// * * * * * * * * * * * * * * * * * * * * * * * * * * * * * * * * * * * * * //

dimensions      [0 1 0 0 0 0 0];


internalField   nonuniform List<scalar> 
14751
(
3.034000089741324
3.034000124510496
3.034000026634675
3.033999949549799
3.033999892463884
3.033999845106867
3.03399979280616
3.033999764820312
3.033999764169323
3.033999764893654
3.03399976594866
3.033999844907282
3.034000007215778
3.034000145705486
3.034000252760507
3.034000329974225
3.034000377771893
3.034000424032893
3.034000469540229
3.034000463257206
3.034000405481542
3.034000345988861
3.034000284249851
3.034000161730323
3.033999968244641
3.033999801503005
3.033999674517716
3.033999600768321
3.033999578279323
3.033999556025657
3.033999534032992
3.033999512525658
3.033999491779327
3.033999471275659
3.033999450525658
3.033999472529157
3.033999537529157
3.033999604275471
3.033999673018132
3.033999804774079
3.03400001551984
3.034000203767393
3.034000350267467
3.03400043326464
3.034000455760976
3.034000478010977
3.03400050025731
3.034000521757314
3.034000542507313
3.034000563499981
3.034000584253648
3.034000584257313
3.034000563507313
3.034000542510978
3.034000521757313
3.034000500260975
3.034000478014642
3.034000455760975
3.034000433264641
3.034000351271156
3.034000207017422
3.034000021023541
3.033999812024101
3.033999681279135
3.033999613275475
3.033999547279159
3.033999483032829
3.033999453529341
3.033999458533009
3.033999463533009
3.033999468529341
3.033999473779341
3.033999479025673
3.033999484033008
3.033999489275673
3.033999495540344
3.033999502272006
3.033999508779341
3.033999515007336
3.033999521507335
3.033999527727996
3.033999533459658
3.033999539224328
3.03399956219493
3.033999602974268
3.033999644720596
3.033999686933925
3.033999755959295
3.03399985367663
3.033999982438477
3.034000129092321
3.034000191648438
3.034000181668237
3.034000171815947
3.034000164659487
3.034000146741531
3.034000118846769
3.034000083326545
3.034000030249481
3.029911083193263
3.029910326350527
3.029906276391328
3.029899887207059
3.029891513001334
3.029882303589212
3.029872573228112
3.029862493144257
3.029852330201081
3.029842095894323
3.029831842801289
3.029821823806248
3.029812112346105
3.029802495710562
3.029793016265141
3.029783694790512
3.029774572578729
3.029765748201784
3.029757226928012
3.029748899633776
3.029740771649078
3.0297329847471
3.029725554362061
3.029718348443806
3.029711348119527
3.029704776850337
3.029698656298233
3.029693025085571
3.029687870810923
3.0296830600578
3.029678582814636
3.029674429111723
3.029670587165381
3.029667044006643
3.029663787369393
3.029660913528961
3.029658410192874
3.029656160381172
3.029654152351948
3.029652521605998
3.029651289378721
3.029650213157309
3.029649246971826
3.029648316543823
3.029647421416227
3.029646705807889
3.029646164227553
3.029645791912611
3.029645586621746
3.029645547859377
3.029645676125476
3.02964591865423
3.029646276469319
3.0296468057997
3.029647509658295
3.029648391036111
3.029649455441621
3.02965071037427
3.029652163825189
3.029653677082191
3.029655254093171
3.029656968396876
3.029658866953695
3.029661193757383
3.029663930380154
3.029666943515926
3.029670245423936
3.029673932096003
3.029678016799963
3.029682424040772
3.029687165044409
3.029692250075343
3.029697687863596
3.029703486419591
3.029709647990329
3.029716175315009
3.029723074399794
3.029730341791588
3.029737979164305
3.029745969416295
3.029754310819052
3.029762992742999
3.02977198251561
3.02978130118799
3.029790912876186
3.029800744556379
3.029810768371088
3.029820998636291
3.029831383005485
3.029841860167255
3.029852362041166
3.029862578817395
3.029872361140245
3.029881748250064
3.029890456842564
3.029898211928697
3.029904578224186
3.029908877599633
3.02991037573962
3.025640040404687
3.025636962622487
3.025622209404483
3.025598615579243
3.025567493306978
3.025533118538624
3.025496737277721
3.025458810764679
3.025420319191626
3.025381486160042
3.025342522488396
3.025303921549102
3.025265932649984
3.025228386657245
3.025191491118787
3.025155326037744
3.025120053720999
3.025085886928728
3.025052847517609
3.025020840700542
3.024989891180625
3.024960236267305
3.024931939225407
3.024904856560835
3.024878982006047
3.024854580971585
3.02483166306932
3.024810288520913
3.02479042502152
3.024771880502803
3.024754618948883
3.024738601142657
3.024723783083054
3.024710119267715
3.024697564959763
3.024686222495061
3.024676043721162
3.024666838979508
3.024658562006176
3.024651356620836
3.024645208709653
3.024639808335607
3.024635094752167
3.024630926685132
3.024627283691711
3.024624342491296
3.024622081589056
3.024620486723022
3.0246195491576
3.024619262384028
3.024619629147264
3.024620576720297
3.024622110327819
3.024624315230498
3.024627200928025
3.024630784667333
3.024635086944056
3.02464013301764
3.024645955127794
3.024652390079402
3.024659469018621
3.024667339258911
3.024676069263267
3.024685974972687
3.024697077513515
3.024709239822453
3.024722509395072
3.024737046636815
3.02475290220552
3.024770001253754
3.024788386046367
3.024808091782719
3.024829150264264
3.024851589924807
3.024875414302388
3.024900625353516
3.02492724462228
3.024955258928615
3.024984672019196
3.025015413659252
3.025047474075224
3.025080808857278
3.025115283569483
3.025150867643903
3.025187414323704
3.025224740869601
3.02526273872279
3.025301302452162
3.025340222615628
3.025379257166485
3.025418223061577
3.025456556099663
3.025493615919638
3.025529115202409
3.025561983391079
3.025591269553414
3.025615378982059
3.025631770185404
3.025637714988868
3.021179366929884
3.021172699133037
3.0211419211636
3.021092718277264
3.021027802543566
3.020955916284758
3.020879684939935
3.020799985693415
3.020718853708566
3.020636860078202
3.020554456757532
3.020472441073989
3.020391335070837
3.020311115963494
3.02023224178477
3.020154903603721
3.02007945786438
3.02000627526892
3.019935414315715
3.019866856622345
3.019800665416061
3.019737186295264
3.019676562071457
3.019618690428967
3.019563589964789
3.019511527137427
3.019462503309176
3.019416589710155
3.019373727523528
3.019333686925577
3.019296396679072
3.019261774337231
3.019229729865027
3.019200171339609
3.019173004991084
3.019148303171423
3.0191259637446
3.019105726043018
3.019087491339515
3.019071360684961
3.019057267759715
3.019044875080879
3.019034097963918
3.019024729839809
3.01901671929991
3.01901023580765
3.019005232863201
3.019001681730566
3.018999564141756
3.018998864350101
3.018999587887537
3.019001650470872
3.019005065107297
3.01900994129762
3.019016298534992
3.019024177071337
3.019033620153794
3.019044680272773
3.019057426926973
3.019071715406754
3.019087618614134
3.019105360587037
3.019125043793638
3.019147018429273
3.019171363588559
3.019197990449908
3.019226999998752
3.019258617638112
3.019292948498338
3.019329949500988
3.019369707617094
3.019412292318962
3.019457765119214
3.019506180205514
3.019557537892546
3.019611832097606
3.019669100618919
3.019729307873091
3.019792452833322
3.019858377048022
3.019927049447921
3.019998365567295
3.020072026466567
3.020147899517638
3.020225659926077
3.020304964027374
3.020385572441675
3.020467171737704
3.020549311884309
3.020631486252547
3.020713333651849
3.020793974759551
3.020872036574839
3.020946688454326
3.021015700023398
3.021077131798316
3.021127698685814
3.021162122311951
3.021174717738988
3.016521213569479
3.016509763166711
3.016458647991221
3.016377222919084
3.016269960029784
3.016150915601038
3.016024435746151
3.01589194395778
3.01575679346722
3.015620011905143
3.015482358658863
3.015344993149779
3.01520879115266
3.01507395379163
3.014941258082597
3.014811055513609
3.014683958634321
3.014560537761456
3.014440908723171
3.014325177863983
3.014213466012402
3.014106243801373
3.014003762043687
3.01390599917977
3.013813006845574
3.013725035408095
3.013642090558096
3.013564246740304
3.013491414085588
3.013423338351089
3.013359907523582
3.013300986917368
3.013246430050545
3.01319608746328
3.013149804699604
3.013107598875324
3.013069299573037
3.013034572658193
3.013003252927104
3.012975364441082
3.012950779626268
3.012929151552883
3.012910356736038
3.012894126395121
3.01288037062524
3.012869225146898
3.012860610960777
3.012854480827183
3.012850803987048
3.012849552208681
3.012850735235231
3.012854263078277
3.012860157702081
3.01286855163484
3.01287947787468
3.012893005636688
3.012909208180733
3.012928172984665
3.012950017318052
3.012974644186276
3.013002179488839
3.013032923978118
3.013067030409182
3.013104867918373
3.013146583640838
3.013192171430705
3.013241799302261
3.01329576107082
3.013354229710548
3.013417214548737
3.013484856323055
3.013557264495893
3.013634534791623
3.013716748935772
3.013803897504811
3.013895958868562
3.013992983309695
3.01409490018068
3.014201694027778
3.01431308780407
3.014429014287499
3.014549284576893
3.014673384070206
3.014801034188176
3.014931675036017
3.015064756251035
3.015199863036705
3.015336401382725
3.015473613167719
3.015610663402139
3.015746954458814
3.015881231726569
3.016011208774759
3.016135340547903
3.01624995556457
3.016351879124628
3.016435730682626
3.016492835777277
3.016513814742842
3.011657677396382
3.011640281926166
3.011565035221068
3.011445964715549
3.011289622368539
3.011115745942746
3.010930666822019
3.01073650209304
3.010538123130933
3.010337111101187
3.010134590722933
3.009932148072129
3.009731075107896
3.009531844074227
3.009335609785305
3.009142933242988
3.008954733526123
3.008771820366097
3.008594386888038
3.008422699398006
3.008256953414874
3.008097762498976
3.007945509609635
3.007800270693899
3.007662141301622
3.00753137003839
3.007407974884256
3.007292025201652
3.007183399469218
3.007081822905792
3.00698713824894
3.006899153109886
3.006817655999265
3.006742430481831
3.006673252379727
3.006610068805418
3.00655262911746
3.006500519478011
3.006453497399024
3.006411498225519
3.006374323679465
3.00634160456724
3.006313169903448
3.006288691941815
3.006268035261854
3.006251288107029
3.006238333955927
3.006229103595179
3.006223550533487
3.006221632512013
3.006223363785665
3.006228651597795
3.00623752795832
3.006250149102087
3.006266565018505
3.006286878942363
3.00631119937516
3.006339655544779
3.006372421408866
3.006409463272869
3.006450969232048
3.006497315568297
3.006548716500719
3.006605573919223
3.006668113638643
3.006736424061148
3.006810750105768
3.006891460416957
3.006978805832226
3.007072860515023
3.007173826118221
3.007281855884931
3.007397082269251
3.007519615724848
3.007649430914431
3.007786482609364
3.00793082937468
3.008082353937346
3.008241016000984
3.00840639678686
3.008578377575002
3.008756664129908
3.008940486410321
3.009129383713965
3.009322515634555
3.009519082840777
3.009718454125233
3.009919699840585
3.010121696688897
3.010323231735574
3.010523423788263
3.010720569445367
3.010911328142907
3.011093308943396
3.011261183519329
3.011410335184514
3.011532970628604
3.011616509941253
3.011647253739272
3.006580690452366
3.00655621859318
3.006453416540348
3.006292100936384
3.006081208887316
3.005846204552428
3.005595614521822
3.005332422870887
3.005063170629788
3.004790072425862
3.004514670505079
3.004239026211049
3.003964897024282
3.003693080854009
3.003425160076816
3.003161950865584
3.002904720657652
3.002654550632298
3.00241173141805
3.002176719521776
3.001949801967258
3.001731744535039
3.001523080967009
3.001324002418941
3.001134658603639
3.0009553051094
3.000785977988385
3.000626731723055
3.000477413409953
3.000337735967296
3.000207492914204
3.000086428606559
2.999974260586843
2.999870698685796
2.999775440746726
2.999688347673228
2.999609079556107
2.999537141109293
2.999472202835564
2.999414098619598
2.999362551435213
2.999317162892373
2.999277707717625
2.999243805699582
2.99921526991501
2.999192126107122
2.99917421504294
2.999161442238992
2.999153744195692
2.999151062684109
2.999153415959352
2.999160712250307
2.999172995302593
2.999190444367123
2.999213128681637
2.999241190212852
2.999274777482937
2.999314066907036
2.999359295976443
2.999410511709416
2.999467972727092
2.999532126231477
2.999603256494344
2.999681805360941
2.99976808638141
2.999862296129665
2.999964765094246
3.000075938067955
3.000196152929512
3.00032556102154
3.000464430278064
3.000612961633409
3.000771325565399
3.000939661276778
3.001117923456317
3.001306036131993
3.001504061265176
3.001711826085239
3.001929253637616
3.002155767365683
3.002391183129964
3.002635083238317
3.002886413138927
3.003144497536431
3.003408178483219
3.003676373093786
3.003948195097608
3.004222329697829
3.00449724177549
3.004771300287734
3.005043297139748
3.005311020344466
3.005569966321648
3.005816775408945
3.006044292987279
3.00624628048664
3.006412273578338
3.006525384597414
3.006567051991376
3.001281963603423
3.001249209089657
3.001115566294743
3.000907950688321
3.000637987750131
3.000336573677073
3.000014605178897
2.999676128842728
2.999329469059988
2.998977554193289
2.998622394887441
2.998266574033518
2.997912356322291
2.997560914411022
2.997214300706222
2.996873631669806
2.996540557010406
2.996216457703829
2.995901743638798
2.995597082563078
2.995302867870598
2.995020026448382
2.99474925496678
2.994490871531157
2.994245089795545
2.994012185352042
2.993792217698403
2.993585218972048
2.993391004699575
2.993209278984512
2.993039783852264
2.992882195162588
2.992736154490845
2.992601292702359
2.992477221639507
2.992363704205361
2.992260304600728
2.992166441712105
2.992081691392507
2.992005779737309
2.991938343759465
2.991878942835581
2.99182729022366
2.991782958965366
2.991745705862037
2.99171548419868
2.991692088233445
2.99167539526164
2.991665322770335
2.991661795264117
2.991664835018995
2.991674353019208
2.991690406265001
2.991713197720296
2.99174281790435
2.991779450515199
2.991823289026847
2.991874561905259
2.991933575875765
2.992000470364918
2.992075581309115
2.992159423152654
2.992252357595417
2.992354881520587
2.99246740336601
2.992590234524234
2.992723798401473
2.992868619568045
2.99302512930514
2.993193565771425
2.993374267528142
2.993567486636142
2.993773433441286
2.99399227420792
2.994223941166612
2.994468323816669
2.994725480320323
2.994995175845341
2.99527728608995
2.99557106527063
2.995876251374266
2.996192287378368
2.996517814307847
2.996851915493655
2.997193084904485
2.997539923891663
2.997891254854838
2.998245334924114
2.998600177909175
2.998953700917132
2.999304326065976
2.9996492733002
2.999982790989541
3.000300438295791
3.000593099744963
3.000852748768826
3.001066031955149
3.001211428401998
3.001265022235773
2.995752925337236
2.995710574614852
2.995542995970834
2.995285427641482
2.994952512260646
2.994580093229698
2.99418158426965
2.993762315771698
2.993332480531631
2.992895795424754
2.992454791645912
2.992012614115315
2.991572071535015
2.991134762917518
2.990703245793627
2.990278981986371
2.989864032176955
2.989460102245962
2.989067743654732
2.988687850455559
2.988320935262193
2.987968093501943
2.987630194583538
2.987307691151085
2.987000869637916
2.986710038068701
2.986435284235793
2.986176611146056
2.985933802739698
2.985706556019231
2.985494559554861
2.985297416972625
2.985114688601044
2.984945920594116
2.984790632571505
2.984648481215902
2.98451892695492
2.984401298765436
2.98429507171643
2.984199858456106
2.984115204014875
2.984040613279264
2.983975732270844
2.983920090813853
2.983873384676775
2.983835486424468
2.983806141599232
2.983785197447308
2.983772549499118
2.983768104028383
2.983771887525316
2.98378381497225
2.98380395738333
2.983832541966886
2.983869683489681
2.983915610367053
2.983970564635139
2.984034831155035
2.984108790940133
2.984192685395261
2.984286933452786
2.984392113755985
2.98450867304109
2.984637177366011
2.984778136188428
2.984931980072083
2.985099232439472
2.985280502333614
2.985476319492563
2.98568701653676
2.985913007322364
2.986154596604936
2.986412036939962
2.986685521689955
2.986974958308237
2.987280198546465
2.987601290503115
2.987937931785087
2.988289939843218
2.988656393772942
2.989036941386724
2.98943087287922
2.989836511999977
2.990252677341575
2.99067749063943
2.991109206418037
2.991546320349236
2.991986623190383
2.992427641788641
2.992866812098279
2.993302144046363
2.993730232695011
2.994144011372412
2.994537847358158
2.994900556096847
2.995222163898134
2.995486237989112
2.995666355151357
2.995732776239971
2.989984748286652
2.989931307550089
2.989726838606308
2.989415964692391
2.989016692600815
2.988569167940827
2.988089453434192
2.987584397861486
2.987066129752875
2.986539235891894
2.986006821552434
2.985472637538103
2.984940070945275
2.984411197030737
2.983889110224395
2.983375656298558
2.982873331854313
2.982384195758875
2.981908962983289
2.981448761609215
2.981004236724748
2.980576659511667
2.980167078950223
2.979776085312014
2.979404045585198
2.979051311970146
2.978718002994905
2.978404096850209
2.978109347290721
2.97783343778917
2.977576000450599
2.977336563636802
2.977114601998231
2.97690957142364
2.976720893580771
2.976548113870211
2.97639058208512
2.976247530424407
2.97611832773784
2.976002471925806
2.975899410838337
2.975808582343826
2.975729559712585
2.97566182206091
2.975604999930231
2.97555888663307
2.975523176177659
2.975497682880407
2.975482279244799
2.975476852789357
2.975481432769993
2.975495938917504
2.975520457221124
2.975555240189375
2.975600430015482
2.975656302656682
2.975723151609482
2.975801322751969
2.975891275325657
2.975993352680688
2.976108062299589
2.976236056504708
2.976377873532285
2.976534161154687
2.976705536074707
2.976892549556678
2.977095829775994
2.97731607697918
2.977553925864962
2.977809806589681
2.978084212134891
2.978377503849363
2.978689976740683
2.979021851652678
2.979373011637779
2.979743266888111
2.980132649977121
2.980540786662705
2.980967424426292
2.981411465471604
2.981872455546606
2.982349521069965
2.982840661742878
2.983344410083395
2.983858495870444
2.984380797343076
2.984909446293043
2.985441736111451
2.985974674548555
2.986505181898217
2.987030812850761
2.987547481562173
2.988046752692417
2.988521694267877
2.988958962649266
2.989346478285173
2.989664557384659
2.989881648557407
2.989961731238015
2.983968431225934
2.98390225243406
2.983658090154474
2.98329076230157
2.982822023303222
2.982295601769073
2.981730327015065
2.981134815153416
2.980523180487606
2.979900965978661
2.979271906770917
2.978640400759372
2.978010446015343
2.977384646573827
2.976766662635537
2.976158764092413
2.975563906398688
2.974984525617289
2.974421524124515
2.973876270425566
2.973349555747323
2.972842829896541
2.972357324750514
2.971893770974948
2.971452624064769
2.971034290128962
2.970638920748391
2.970266473249458
2.969916671216261
2.969589179379258
2.96928357109875
2.96899929545166
2.968735736676952
2.968492256147675
2.968268172065979
2.968062912137141
2.967875710145284
2.967705695059022
2.96755212429492
2.967414380766132
2.967291810046818
2.967183771052277
2.967089758626582
2.967009194561685
2.966941641195079
2.966886813354262
2.966844350549855
2.966814031372023
2.966795704286004
2.966789238104543
2.966794663559775
2.966811905163592
2.966841065369322
2.966882423168678
2.966936150560001
2.967002573197146
2.967082039306228
2.967174960053503
2.967281876334897
2.967403234582199
2.967539635675178
2.967691813743413
2.967860404926927
2.96804615004744
2.968249778705127
2.96847196495608
2.968713446644812
2.968975021030868
2.969257432003491
2.969561211695319
2.969886936852405
2.970235028302059
2.970605825009403
2.97099957512039
2.971416137440573
2.971855279927941
2.972317012874063
2.972800886148398
2.973306566808152
2.973832780326243
2.974378958789069
2.974944055858679
2.975525744647055
2.976122251977782
2.976730898811583
2.977349159045796
2.97797476256365
2.978604475000275
2.979234754961616
2.979861974587487
2.980483187788823
2.981093572977619
2.98168328345181
2.982243977915889
2.982760076966597
2.983217236356074
2.983592361667991
2.983848575746821
2.983943117245952
2.977694749299459
2.977614032003303
2.977327609905854
2.976900869293456
2.976359712238188
2.97575077266981
2.975095758474523
2.974405301503709
2.973695545855336
2.972973078268058
2.972242324603182
2.971508366802362
2.970775845214642
2.970047949457916
2.96932893344417
2.968621531785244
2.967929181046426
2.967254716433017
2.966599251885228
2.965964403953371
2.965351121550381
2.964761033138494
2.964195554923722
2.963655560970056
2.963141603106623
2.962654148114508
2.9621933820168
2.961759243881616
2.961351426834667
2.96096957331344
2.960613195951864
2.960281660385357
2.95997425683557
2.959690247209606
2.959428839493515
2.959189336872906
2.95897085249657
2.958772407327515
2.958593142272539
2.958432322551523
2.958289186497684
2.958163006322348
2.958053193572083
2.957959107135386
2.957880237550258
2.957816218924821
2.957766635037971
2.957731226949782
2.957709816707824
2.957702254284499
2.957708570488918
2.957728696503969
2.957762752118118
2.957811042523468
2.957873772931086
2.957951320293804
2.958044091060994
2.958152565105814
2.958277368376805
2.958419053696601
2.958578320236866
2.958755990345761
2.95895280366912
2.959169602929264
2.959407236506876
2.959666503413173
2.959948256723086
2.960253395710532
2.9605827766222
2.96093704016957
2.961316851002921
2.961722691748729
2.96215494783538
2.962613894434867
2.963099367344431
2.963611091844488
2.964149048381433
2.96471270844075
2.965301648501619
2.965914419308867
2.966550328292616
2.967208147659908
2.967885225020727
2.968579464004354
2.96928776112166
2.970007158217456
2.970734944762361
2.9714673271071
2.972200185544006
2.972929313185673
2.97365121480654
2.974360281989775
2.975045221201734
2.975696166067356
2.976295232941069
2.976825652343701
2.977260768555892
2.977558200337973
2.977667982490727
2.971154303983963
2.971057080687212
2.970726039230196
2.970237060868036
2.969620626011442
2.968925640161661
2.968176797153961
2.967386995687515
2.966574446660836
2.965746873873304
2.964909458231196
2.964068003188289
2.963227823356908
2.962392750076806
2.961567658838385
2.960755792237109
2.959961088950424
2.959186803145227
2.958434286389453
2.957705408086896
2.957001286403616
2.956323727998013
2.95567433217609
2.955054119614539
2.954463746291225
2.953903744669164
2.953374336564885
2.952875445211253
2.952406733790664
2.951967817995153
2.951558146968735
2.951177000075396
2.950823569354525
2.950497011716937
2.950196419442141
2.94992096474069
2.949669634262908
2.949441336804845
2.949235092500968
2.949050044122473
2.948885318769774
2.948740095415516
2.948613697142155
2.948505414072356
2.948414660797571
2.948340990145895
2.948283928662234
2.948243177219573
2.948218529522512
2.948209816641886
2.948217067801414
2.94824022253744
2.94827941851205
2.948334988011326
2.948407172212188
2.948496400775523
2.948603141931211
2.948727948510621
2.94887153420825
2.949034560838588
2.949217830817993
2.949422260925159
2.949648700798126
2.949898102911018
2.95017143936345
2.950469638355168
2.950793672709749
2.951144547638342
2.95152323716322
2.951930495894898
2.952367079528345
2.952833536420321
2.953330300176046
2.953857673083112
2.954415470858985
2.955003374874656
2.955621328256615
2.95626872209177
2.956945031289957
2.957648636441048
2.958378710061349
2.959133834589116
2.959911036460113
2.960707879425075
2.961520821917734
2.962346445406743
2.963181557747508
2.964021775581104
2.964862371254014
2.965698527075867
2.966526150086144
2.967338792435683
2.968123681818214
2.968869310429304
2.969555426791906
2.970162672306334
2.970660684387281
2.971001411611933
2.971127210752389
2.96433767507161
2.964221976460471
2.963844242862926
2.963290307358044
2.962595663236166
2.961811056951494
2.960964272339608
2.960070703302432
2.959150664691008
2.958213114628355
2.957264057449347
2.956310055341214
2.955357128631418
2.954409803110932
2.953473604291111
2.952552328175618
2.951650436219162
2.950771619734696
2.949917494079675
2.949090185341539
2.948290991786144
2.947521895656231
2.946784678053878
2.946080508765736
2.945410155462768
2.944774221201566
2.944172964014888
2.943606293627367
2.94307384402573
2.942575199834145
2.942109743761266
2.941676665655217
2.941275054360081
2.940903956790134
2.940562344526402
2.940249252534893
2.939963535537978
2.939703985060981
2.939469495320116
2.939259083558226
2.939071761191268
2.938906606677772
2.93876284962253
2.938639705712947
2.938536510229897
2.938452734056315
2.938387844036626
2.9383414984204
2.938313461564763
2.93830354471093
2.938311774860336
2.938338100751833
2.938382678388878
2.93844586770068
2.93852794916915
2.938629406941638
2.938750773954963
2.938892680089785
2.939055929935351
2.939241296875387
2.939449690977126
2.939682130049031
2.939939580448963
2.940223111616483
2.940533824099013
2.940872779849604
2.941241075910782
2.941639828726597
2.94207013446336
2.942532866796356
2.943028876320449
2.943558780200227
2.944123062974164
2.944722053967729
2.945355551171456
2.946023192213673
2.946724875729054
2.947459910279282
2.948227657618647
2.94902633413319
2.949854968473002
2.950711945501247
2.951593976203469
2.952498269393569
2.953420833134717
2.954357759697631
2.95530533277983
2.956258545927833
2.957212033486682
2.958160336957915
2.95909871330913
2.96001982227078
2.960909383749184
2.961754128526838
2.962531376443752
2.963219013059796
2.963782825510973
2.964168932425367
2.964311529003827
2.957235446213667
2.957099354483899
2.956672972877842
2.956051370155827
2.955275482029857
2.954397596857856
2.953448690129819
2.952446862441404
2.95141456516852
2.950362094981467
2.949296351023555
2.948224693028084
2.947153879233474
2.946089178052132
2.945036795134351
2.944001126013422
2.942987176832162
2.94199909447403
2.941038783104524
2.940108628943995
2.939210121512647
2.938345414013984
2.937516466062567
2.936724599120945
2.935970699305332
2.935255445317274
2.934579132029826
2.933941658005633
2.933342628611008
2.932781592919378
2.932257863664733
2.931770537199526
2.931318595669505
2.930900971262818
2.930516507839473
2.930164096346359
2.929842455110232
2.929550253435938
2.929286254766357
2.929049348165523
2.928838424275718
2.928652453887532
2.928490567332912
2.928351900571878
2.928235706394854
2.928141371985422
2.928068303360042
2.928016113646147
2.927984536106498
2.927973362269954
2.927982615159377
2.928012253983148
2.928062453741996
2.9281336026391
2.928226023381649
2.928340256835977
2.928476903726867
2.928636673842563
2.928820466874155
2.929029170289303
2.929263805763657
2.929525499293142
2.929815339919534
2.930134522583833
2.930484281546841
2.930865815009354
2.9312803501886
2.931729120039907
2.932213346654807
2.9327340279456
2.933292113737343
2.933888293691355
2.934523105321199
2.935196905231395
2.935909476857005
2.936660414710832
2.937449565357642
2.938276152403632
2.939139413810972
2.940037407750335
2.940969010271156
2.94193240285397
2.942923988613469
2.94394060672465
2.944977802654613
2.946031150752046
2.947096365531129
2.948167783039894
2.949239368998012
2.950304992072481
2.951359204917642
2.952393721200701
2.953392725445846
2.954341065105556
2.95521356825223
2.955985195501719
2.956617741445882
2.957051337990532
2.957211524013747
2.949838138500002
2.949679908241981
2.949203160294223
2.948511188046557
2.947650790143745
2.946675776939231
2.945620413066638
2.944505690205088
2.943356232633216
2.942183775097808
2.940996184337807
2.939801655584442
2.938607715560854
2.937420420904618
2.9362466896406
2.93509156389129
2.933960617255398
2.932858468389594
2.931787336051967
2.930749870004806
2.929747760673582
2.92878332737749
2.927858703112166
2.926975362942684
2.926134318589104
2.925336328619883
2.92458172535226
2.923870399205074
2.923201926132168
2.922575814814572
2.921991305524955
2.921447397298169
2.920942961131802
2.920476808957618
2.920047650906455
2.91965422748472
2.919295114819324
2.918968854945644
2.918674076911091
2.918409537243196
2.918174000877185
2.917966324340199
2.917785533070627
2.917630677687301
2.917500925107014
2.917395577426638
2.917313978487322
2.91725569391153
2.917220423948092
2.917207940139213
2.917218259979109
2.917251354012368
2.917307417401435
2.917386867361447
2.917490071610291
2.917617629502158
2.917770212987591
2.917948616381292
2.918153836515066
2.918386877959215
2.918648879270497
2.918941080449591
2.919264699777986
2.919621065622572
2.920011551539007
2.920437495866813
2.920900261098036
2.92140120189657
2.921941670803116
2.922522795186602
2.92314562761197
2.923810934730056
2.924519308812734
2.925271134676001
2.926066185541373
2.926904012473415
2.927784402760685
2.928706491509477
2.929669383959357
2.930670986064812
2.931710012945755
2.932784438579203
2.933890366558559
2.935024252932309
2.936181168770188
2.937356139541596
2.938544263617459
2.939739185061717
2.940934167331033
2.942122372721603
2.943297595221767
2.944450547978089
2.945563851047555
2.94662034434135
2.947592298547302
2.948451577592866
2.949155840735262
2.949639075913665
2.949817658495159
2.942136370151442
2.941954503937427
2.941425675215017
2.940660533104532
2.93971212238211
2.93863592601445
2.937469596331094
2.936237175334603
2.934965496027482
2.933667831602247
2.932353090629838
2.931030339019648
2.929707904160317
2.928392673654226
2.927092312391848
2.925812555826522
2.924559570216838
2.923338461485415
2.922151787518474
2.921002465433577
2.919892394986707
2.918824054505592
2.917799745927216
2.916821099845428
2.915889259168921
2.91500506740833
2.914168894917702
2.913380624953174
2.912639804423377
2.911945896857833
2.911298067114926
2.910695213502336
2.910136090027139
2.909619382897348
2.909143663061247
2.908707514262671
2.908309364955401
2.907947624189845
2.907620781282632
2.907327456552343
2.907066284732674
2.906836001092508
2.906635520830611
2.906463803369614