/*--------------------------------*- C++ -*----------------------------------*\
| =========                 |                                                 |
| \\      /  F ield         | OpenFOAM: The Open Source CFD Toolbox           |
|  \\    /   O peration     | Version:  v1812                                 |
|   \\  /    A nd           | Web:      www.OpenFOAM.com                      |
|    \\/     M anipulation  |                                                 |
\*---------------------------------------------------------------------------*/
FoamFile
{
    version     2.0;
    format      ascii;
    class       volScalarField;
    location    "0.00000001";
    object      nut;
}
// * * * * * * * * * * * * * * * * * * * * * * * * * * * * * * * * * * * * * //

dimensions      [0 2 -1 0 0 0 0];


internalField   nonuniform List<scalar> 
14751
(
1.269185188208815e-10
1.254522504385356e-10
1.247540666341046e-10
1.233164321800316e-10
1.220807238286043e-10
1.204927792103107e-10
1.18856217742033e-10
1.17067580411172e-10
1.151847132767026e-10
1.132075398152361e-10
1.111813697697171e-10
1.090968712433744e-10
1.069756118334958e-10
1.048635541399829e-10
1.027791659887562e-10
1.007343617549364e-10
9.875360283595027e-11
9.682994731324915e-11
9.498826089405704e-11
9.32371649952422e-11
9.159410589936864e-11
9.005021777763736e-11
8.861166554646739e-11
8.728794537358562e-11
8.608491437190693e-11
8.498264317599298e-11
8.397866833553474e-11
8.306989080512736e-11
8.225331900265998e-11
8.153627901533315e-11
8.091648695852958e-11
8.039120768636682e-11
7.995780106848889e-11
7.961208391773266e-11
7.935319436455006e-11
7.917016063725817e-11
7.906439929133536e-11
7.903152371103964e-11
7.907973738254218e-11
7.919277037462297e-11
7.936140568622608e-11
7.96074293943377e-11
7.992650190384801e-11
8.032228283054137e-11
8.079426701532299e-11
8.132764130877955e-11
8.192272171336918e-11
8.257727619884763e-11
8.328953836927617e-11
8.405859957145282e-11
8.488177850151908e-11
8.576156507913345e-11
8.669723281044207e-11
8.768185499236806e-11
8.871466007709436e-11
8.979284401128945e-11
9.091410662389325e-11
9.20771776501899e-11
9.327766588011058e-11
9.452411020712724e-11
9.581691408852886e-11
9.714514899157376e-11
9.850533824416396e-11
9.987335696349598e-11
1.012455777525702e-10
1.026319936521702e-10
1.040271380015306e-10
1.054204044873465e-10
1.068043791806889e-10
1.081823679452472e-10
1.095480821007827e-10
1.108964564911341e-10
1.122222441797724e-10
1.135214163690114e-10
1.147883242056229e-10
1.160200819989768e-10
1.172151523829785e-10
1.183670365820314e-10
1.194793060611663e-10
1.205402762983762e-10
1.215467537323465e-10
1.224893648747196e-10
1.233926109095932e-10
1.242291065247785e-10
1.250111603475219e-10
1.257401754065137e-10
1.264199248421457e-10
1.270300938374378e-10
1.275763390842869e-10
1.28041714963254e-10
1.284328587565492e-10
1.287382951187282e-10
1.289661143829024e-10
1.290777708662157e-10
1.290384167749504e-10
1.289070594497384e-10
1.285064783989244e-10
1.279350667843125e-10
1.273413798416498e-10
9.960600664577015e-09
9.84130839671702e-09
9.787281832291291e-09
9.713019104336513e-09
9.657152434342768e-09
9.592198045553349e-09
9.526150894186039e-09
9.455614573650807e-09
9.380853818825507e-09
9.301279336680829e-09
9.219142739615128e-09
9.133558669169767e-09
9.04511356966624e-09
8.956086477781514e-09
8.867504262547088e-09
8.779515937285283e-09
8.693841500843505e-09
8.609716712157561e-09
8.529000358155849e-09
8.452351060244258e-09
8.381084209268337e-09
8.314832997719263e-09
8.254120032183721e-09
8.199648411265559e-09
8.151964001530232e-09
8.109948375111733e-09
8.073563755611295e-09
8.042718220535731e-09
8.017360425307883e-09
7.998141083769573e-09
7.985107478659969e-09
7.978086428489706e-09
7.977024255903473e-09
7.981922684024926e-09
7.992764543802086e-09
8.008650592353002e-09
8.03009161064319e-09
8.056428216199176e-09
8.088628047381816e-09
8.125537308030087e-09
8.166406577695468e-09
8.212834684662434e-09
8.264701291182712e-09
8.322044016038384e-09
8.384821564498475e-09
8.451963680839495e-09
8.52341171284658e-09
8.598957903682262e-09
8.678356470239479e-09
8.761479670078418e-09
8.847992079330388e-09
8.937979293971265e-09
9.031264830862607e-09
9.127145381844591e-09
9.225399403184859e-09
9.325659645566727e-09
9.427537884020422e-09
9.530751189359113e-09
9.634806605001792e-09
9.740089066930889e-09
9.846478391571947e-09
9.952903761681052e-09
1.005872098483032e-08
1.016216170148978e-08
1.026268658934518e-08
1.036078626479114e-08
1.045586930903524e-08
1.05469867993631e-08
1.063340148994633e-08
1.071513309141759e-08
1.07915932753337e-08
1.086223873450189e-08
1.092652468474609e-08
1.09841450455997e-08
1.103449346000867e-08
1.107728046725652e-08
1.111251872638512e-08
1.113953476737636e-08
1.11585929496981e-08
1.116938023003622e-08
1.117254604577418e-08
1.116543278387526e-08
1.115051258304924e-08
1.112637230948523e-08
1.109420463175976e-08
1.105474237570028e-08
1.100877067983135e-08
1.09551513433569e-08
1.089507128366704e-08
1.082786684213286e-08
1.075492350330076e-08
1.067521011730586e-08
1.059096150847681e-08
1.050119785289251e-08
1.040390772994204e-08
1.030811775807149e-08
1.020330483087626e-08
1.010332691689541e-08
1.000810894532967e-08
7.459600863494334e-08
7.369005362614061e-08
7.337187573917527e-08
7.317012829418872e-08
7.315687534805739e-08
7.321811985184015e-08
7.330428283292756e-08
7.342732068199878e-08
7.355727446041156e-08
7.368554385332954e-08
7.381960282060422e-08
7.395236729775833e-08
7.407891475770692e-08
7.420661491275092e-08
7.433844650722287e-08
7.446839769357257e-08
7.46061989153251e-08
7.474230042642709e-08
7.488873946224082e-08
7.504859750587909e-08
7.523021272306712e-08
7.543192599029142e-08
7.565623497413288e-08
7.59065652467692e-08
7.618629194930135e-08
7.648932466578084e-08
7.681571577294826e-08
7.716488990827798e-08
7.753711417209898e-08
7.793697724641329e-08
7.836608086667191e-08
7.882268330428926e-08
7.930708660433161e-08
7.982192150284704e-08
8.036789043884557e-08
8.093604176101168e-08
8.153479092362531e-08
8.215608302488052e-08
8.280734330801887e-08
8.348303613389499e-08
8.417920162094341e-08
8.490044936449285e-08
8.564803074192614e-08
8.642216771325499e-08
8.722314099922325e-08
8.804273637404461e-08
8.887862136540378e-08
8.972885584707232e-08
9.058989642844365e-08
9.14598490534346e-08
9.233455032290043e-08
9.321294838088734e-08
9.4092047178301e-08
9.496501404940042e-08
9.582799668679766e-08
9.66767417624033e-08
9.750594143433266e-08
9.831149758300148e-08
9.908839006051995e-08
9.983647808467947e-08
1.005531613731687e-07
1.012296361742108e-07
1.018574807732287e-07
1.024259840167624e-07
1.029293821635582e-07
1.033689962456275e-07
1.037401939173736e-07
1.040359104609517e-07
1.042501252854092e-07
1.043818706373282e-07
1.044269144085027e-07
1.0438135198179e-07
1.042410011267839e-07
1.040056496530939e-07
1.03670212345807e-07
1.032338509075518e-07
1.026999355668904e-07
1.0206257516006e-07
1.013270988263861e-07
1.004990274058863e-07
9.9591942047223e-08
9.856748212152072e-08
9.745558286746796e-08
9.625309175764132e-08
9.497395498176403e-08
9.363143195160255e-08
9.223792748881788e-08
9.079211189377857e-08
8.93098966385706e-08
8.779333231275472e-08
8.626093721622019e-08
8.470432240631751e-08
8.315444290324544e-08
8.161895405675342e-08
8.008921985487476e-08
7.86620873084504e-08
7.72874665771961e-08
7.608346073816663e-08
7.504530234728535e-08
2.77283302278967e-07
2.739807005935391e-07
2.73243370628354e-07
2.736375574245622e-07
2.749969868556656e-07
2.770884649763838e-07
2.794138593130229e-07
2.821223832336085e-07
2.850259661620417e-07
2.880891224080646e-07
2.913158348842145e-07
2.9468261908459e-07
2.981419180667951e-07
3.016931776121919e-07
3.053271766725724e-07
3.090008780796659e-07
3.12732851792993e-07
3.164708567407946e-07
3.202482693054741e-07
3.24065365445045e-07
3.279429581762379e-07
3.318723216950838e-07
3.358513643348545e-07
3.398803552145486e-07
3.43962644691752e-07
3.480767045836196e-07
3.52217937618796e-07
3.563787913807691e-07
3.605578670200964e-07
3.647651256990554e-07
3.690067767499825e-07
3.732707381252001e-07
3.775546073994682e-07
3.818731652020052e-07
3.862336299732375e-07
3.90590144716755e-07
3.949767463039121e-07
3.99384713027939e-07
4.037926153884568e-07
4.081932787170939e-07
4.125893758107147e-07
4.169752334731153e-07
4.213663916308067e-07
4.257528540875244e-07
4.301318683779918e-07
4.344757881567767e-07
4.387648563501269e-07
4.429905604178368e-07
4.471314164176052e-07
4.51175957386319e-07
4.551019930676849e-07
4.588978311922794e-07
4.625458317941957e-07
4.660168470430831e-07
4.692878848638088e-07
4.723395526795049e-07
4.751445400090479e-07
4.776821667958317e-07
4.799319697792505e-07
4.818842884830108e-07
4.835254426663688e-07
4.848273989478129e-07
4.857538606908291e-07
4.862780844207595e-07
4.863788069753922e-07
4.860587648531065e-07
4.853067614873749e-07
4.841040007751125e-07
4.824318452940301e-07
4.802886414032664e-07
4.776638735062667e-07
4.745508684388472e-07
4.709370288381615e-07
4.66837856709757e-07
4.622355795112176e-07
4.571377195829257e-07
4.515762906137646e-07
4.455271065319322e-07
4.390298380052945e-07
4.321320123514728e-07
4.249180678467924e-07
4.171701114041748e-07
4.090649516431344e-07
4.00628087961897e-07
3.919292675265682e-07
3.830473939614538e-07
3.740416453965972e-07
3.649555697168976e-07
3.558549165088793e-07
3.467746869289825e-07
3.377994090003076e-07
3.289082517045431e-07
3.202367759329237e-07
3.118625844481815e-07
3.037767978865369e-07
2.963811604285118e-07
2.89577762023747e-07
2.837981339943196e-07
2.791658681172616e-07
7.304600338179796e-07
7.223228692511574e-07
7.217944380107608e-07
7.255084210614992e-07
7.324874910417326e-07
7.422883215655372e-07
7.531699416164396e-07
7.657164713688216e-07
7.792895975449744e-07
7.937477732515146e-07
8.090339871117621e-07
8.250600423521504e-07
8.41708436413327e-07
8.589223864234521e-07
8.766248820172706e-07
8.946714329110506e-07
9.130499595096209e-07
9.31583016079696e-07
9.503203070775474e-07
9.692299618073013e-07
9.883317316571228e-07
1.007582129356286e-06
1.026936326350927e-06
1.046352950469627e-06
1.065804294457539e-06
1.085220121505295e-06
1.104561346792435e-06
1.123781324709464e-06
1.142857513108817e-06
1.16178465061828e-06
1.180571172391183e-06
1.199163659422704e-06
1.21752996522143e-06
1.235708907507539e-06
1.253695187868963e-06
1.271410803729691e-06
1.288764855500348e-06
1.305921658203233e-06
1.322674636745529e-06
1.339128523954967e-06
1.355209697942288e-06
1.370894457158864e-06
1.386213771295876e-06
1.401123651287136e-06
1.415603594581536e-06
1.429593566877911e-06
1.443014195622837e-06
1.455843110704519e-06
1.468006726180233e-06
1.479467550474275e-06
1.490157334348301e-06
1.500030388955602e-06
1.509034190434621e-06
1.517094258426464e-06
1.524138480956031e-06
1.530119915651358e-06
1.534962190393259e-06
1.538611639099887e-06
1.541022099960086e-06
1.542164850641453e-06
1.542013963105238e-06
1.540513318759753e-06
1.537589122653637e-06
1.533209443406258e-06
1.527337292510632e-06
1.519991798540395e-06
1.511170615485036e-06
1.500855810710655e-06
1.48901811304921e-06
1.475666812619425e-06
1.460788967349673e-06
1.444397383328777e-06
1.426460311210816e-06
1.407071556556106e-06
1.386185565405542e-06
1.36384228452765e-06
1.340032419862574e-06
1.314849789388443e-06
1.288425550317731e-06
1.260915766687434e-06
1.232694663821292e-06
1.203074861469396e-06
1.17257669570428e-06
1.141403676310662e-06
1.109705950012241e-06
1.077797712635739e-06
1.045838183230029e-06
1.014043854380643e-06
9.825872314315401e-07
9.516210355502231e-07
9.213722853412793e-07
8.91825713661796e-07
8.633306870202116e-07
8.362077781656793e-07
8.104647159780352e-07
7.871782832448435e-07
7.66216069403112e-07
7.487715013651891e-07
7.35598113162572e-07
1.562269976774317e-06
1.546945884174181e-06
1.549290681244591e-06
1.562386641898522e-06
1.583891233656418e-06
1.61275410878301e-06
1.644970973890527e-06
1.681838352436951e-06
1.721926835693114e-06
1.764813127501184e-06
1.810346525910598e-06
1.858399249079956e-06
1.908496315144299e-06
1.960462021349697e-06
2.014040494877325e-06
2.068711248212018e-06
2.124421618397548e-06
2.180761538574309e-06
2.237735159223212e-06
2.295207493691177e-06
2.353128474262953e-06
2.411341607678524e-06
2.469658665731164e-06
2.527900175024396e-06
2.585914100109055e-06
2.643497576126776e-06
2.700496155124347e-06
2.756744434072878e-06
2.812143143250452e-06
2.866605544549098e-06
2.919988877081603e-06
2.972234567121032e-06
3.02324617061269e-06
3.073267702936981e-06
3.12186925874843e-06
3.169325636092991e-06
3.215028446595478e-06
3.259463817102157e-06
3.302164137472567e-06
3.343402771247827e-06
3.38294119298266e-06
3.42075087961571e-06
3.456860089233232e-06
3.49116798842983e-06
3.52362820200774e-06
3.554149009703563e-06
3.582549031592096e-06
3.608799325830303e-06
3.632746792123499e-06
3.654324028173568e-06
3.673403454554817e-06
3.689891565491757e-06
3.703704807447218e-06
3.714721217454343e-06
3.722806971197446e-06
3.727901077323201e-06
3.729872759197221e-06
3.728649750720585e-06
3.724176927373832e-06
3.7164141792763e-06
3.705359677988207e-06
3.690931937525825e-06
3.673047506567572e-06
3.651710051662107e-06
3.626890301840126e-06
3.598659508308706e-06
3.567060074873899e-06
3.532108737983218e-06
3.493774896974834e-06
3.452096122418474e-06
3.407044784047797e-06
3.358701157025636e-06
3.306938326275953e-06
3.251580202068645e-06
3.193008883220202e-06
3.131368091661758e-06
3.066768699397618e-06
2.999313482406507e-06
2.929285213966384e-06
2.856941164068203e-06
2.783095787556713e-06
2.706901970367971e-06
2.628823245109852e-06
2.549800950356553e-06
2.469954654862412e-06
2.390172229868314e-06
2.310786980662909e-06
2.2323224472413e-06
2.155185643138217e-06
2.079774956904376e-06
2.006559775209828e-06
1.935589547321874e-06
1.867561399149846e-06
1.803335467276405e-06
1.742985607836404e-06
1.688741909747089e-06
1.640495812417597e-06
1.601036153329458e-06
1.572587920494372e-06
2.895949971017924e-06
2.872781033264757e-06
2.883973263254919e-06
2.916800300579109e-06
2.96724021348287e-06
3.03282483108907e-06
3.106284618950051e-06
3.189731725341469e-06
3.280595214416889e-06
3.377846587281546e-06
3.481102735259676e-06
3.590118911324416e-06
3.703741142885394e-06
3.82156572143713e-06
3.942925139257468e-06
4.066737802633795e-06
4.19270890841613e-06
4.319784703564757e-06
4.447883073277237e-06
4.576538260391066e-06
4.705563190557987e-06
4.834530133451391e-06
4.962946683123681e-06
5.090311212849752e-06
5.216248780397517e-06
5.340290749645016e-06
5.462068237905562e-06
5.58120423366878e-06
5.697443970579231e-06
5.810562013131466e-06
5.920353431340159e-06
6.026664096413483e-06
6.129534575526838e-06
6.22918660439216e-06
6.324432978149139e-06
6.416094588283507e-06
6.503201751575058e-06
6.586474013530734e-06
6.665271003932999e-06
6.740030840345599e-06
6.81035741149858e-06
6.876270186070281e-06
6.9377940497863e-06
6.994800921503964e-06
7.047260653111799e-06
7.095089696860125e-06
7.138035905394755e-06
7.176107767166727e-06
7.209101670919544e-06
7.236960350741216e-06
7.259534753375926e-06
7.276712529927716e-06
7.288431405735888e-06
7.294556497355625e-06
7.294928739118046e-06
7.289515358900283e-06
7.278163398016093e-06
7.260840911421536e-06
7.237518344285844e-06
7.208149931230138e-06
7.172793461626356e-06
7.131373580853339e-06
7.083832521898089e-06
7.030246433101414e-06
6.970614509017668e-06
6.905074092080919e-06
6.833728281419499e-06
6.756647899659799e-06
6.673789138723451e-06
6.585212972760411e-06
6.490802672455953e-06
6.389737142391617e-06
6.282670728416587e-06
6.169639406668659e-06
6.050998288900169e-06
5.927020862665448e-06
5.797945537323924e-06
5.663902366903494e-06
5.525336106631932e-06
5.382451267099086e-06
5.236271882207115e-06
5.087357117189592e-06
4.93466613441754e-06
4.780665380783085e-06
4.625384433481028e-06
4.470574959975288e-06
4.316848608933836e-06
4.165165830313514e-06
4.01635172731783e-06
3.87118917372826e-06
3.730522335063048e-06
3.59457349237312e-06
3.464555513478121e-06
3.342265188776865e-06
3.227968171054665e-06
3.125585647080873e-06
3.035221825191402e-06
2.962461107499814e-06
2.912047709404487e-06
4.825203446759196e-06
4.796860451091073e-06
4.826726470422126e-06
4.893724248294716e-06
4.991919932672653e-06
5.116498470822041e-06
5.25598186069352e-06
5.413208106379074e-06
5.583994272250819e-06
5.766283258913054e-06
5.959116080248737e-06
6.16190929259948e-06
6.372497171709767e-06
6.589953130133394e-06
6.812863956329683e-06
7.039217276213552e-06
7.268245819933122e-06
7.497940175787988e-06
7.727989060158753e-06
7.95740112949002e-06
8.185724660127287e-06
8.412123221865559e-06
8.635675056235508e-06
8.855444667220558e-06
9.07076317166397e-06
9.280847763792644e-06
9.485096533916606e-06
9.682918118661111e-06
9.873929058407091e-06
1.00577876164031e-05
1.023427466184508e-05
1.040332983005294e-05
1.056570369949437e-05
1.072000187957725e-05
1.086573175837797e-05
1.100383808793733e-05
1.113336770005121e-05
1.125513132372123e-05
1.136855912134724e-05
1.147421423808684e-05
1.157168195699752e-05
1.16611103126037e-05
1.174256503306828e-05
1.181597413130658e-05
1.188140302374446e-05
1.193883713337315e-05
1.198805251899271e-05
1.202915130316437e-05
1.206195098942868e-05
1.208646424597567e-05
1.210258275688012e-05
1.211022822209388e-05
1.210942027790842e-05
1.210005097810254e-05
1.208199203489504e-05
1.205527429873635e-05
1.201976472239734e-05
1.197551576914035e-05
1.192252962893755e-05
1.186076138450722e-05
1.17903285404572e-05
1.171118171731214e-05
1.162329558944125e-05
1.152680959690625e-05
1.142174169385384e-05
1.130826831206155e-05
1.118652708169634e-05
1.105662946955087e-05
1.091847794714007e-05
1.077185423286845e-05
1.061530334360228e-05
1.044940162118003e-05
1.02746117391317e-05
1.009099708885556e-05
9.898897141085544e-06
9.698674588238361e-06
9.490650235561195e-06
9.274944791677356e-06
9.052108009782556e-06
8.822194943299304e-06
8.586412098130706e-06
8.347010439811452e-06
8.101554131691322e-06
7.853731305638255e-06
7.60380255138298e-06
7.354359297663777e-06
7.106465200931655e-06
6.861562438100616e-06
6.621097455989428e-06
6.386336564817862e-06
6.158653920873138e-06
5.938579248276185e-06
5.728043019126179e-06
5.530193013455479e-06
5.34571138844965e-06
5.180767197874969e-06
5.036057681764347e-06
4.921283890316222e-06
4.844882110043758e-06
7.394632571798668e-06
7.367750388357259e-06
7.42903044880735e-06
7.546919299150095e-06
7.712979252361569e-06
7.919448514145942e-06
8.149669972027534e-06
8.407028716886436e-06
8.68497028437295e-06
8.980052789312937e-06
9.290121756773371e-06
9.613955406609759e-06
9.948061761818342e-06
1.02905878269753e-05
1.063905996367145e-05
1.099024037628429e-05
1.134271314379849e-05
1.169333479822741e-05
1.204150207963632e-05
1.238562641213165e-05
1.272497682704594e-05
1.305831235408931e-05
1.33843211519327e-05
1.37016984254165e-05
1.400957077800766e-05
1.430695237705243e-05
1.459313736665643e-05
1.486746236871807e-05
1.512956847049435e-05
1.537914772935003e-05
1.561616041917417e-05
1.584097223720196e-05
1.605467572755773e-05
1.625405730922977e-05
1.644046455676292e-05
1.661444128268269e-05
1.677545778645932e-05
1.692431867055721e-05
1.706075319854703e-05
1.718541466735726e-05
1.729803793632451e-05
1.739895115725683e-05
1.748831892062109e-05
1.756620276932218e-05
1.763281845752657e-05
1.768826739214023e-05
1.773244574838764e-05
1.776557767438398e-05
1.778756464020327e-05
1.77985267923977e-05
1.779843973065429e-05
1.778729718582656e-05
1.776522952315175e-05
1.773217694071279e-05
1.768807921776704e-05
1.76330383508848e-05
1.75669645760858e-05
1.748999798443509e-05
1.740215586829476e-05
1.730339311688686e-05
1.719385553664701e-05
1.707351736900541e-05
1.694236691627061e-05
1.680056476727623e-05
1.664811696738556e-05
1.648518908000877e-05
1.631190463894398e-05
1.612839363151901e-05
1.59344846568247e-05
1.572761249103836e-05
1.550839518160306e-05
1.527706522131267e-05
1.503393128795946e-05
1.477899647290001e-05
1.451254431549896e-05
1.42349483007541e-05
1.39465300417497e-05
1.364733421373936e-05
1.333795013683552e-05
1.301835948614882e-05
1.269018061305427e-05
1.235567593194744e-05
1.201334895917585e-05
1.166649983424225e-05
1.131628754986014e-05
1.096577456152751e-05
1.061668484518569e-05
1.027086439103604e-05
9.930538267642774e-06
9.597474073170419e-06
9.273708427439162e-06
8.960187327006568e-06
8.65975398426809e-06
8.377229348219433e-06
8.114004036923985e-06
7.879000379228336e-06
7.674041405518914e-06
7.51404214370576e-06
7.41225287866535e-06
1.059262898159942e-05
1.057700213438968e-05
1.068314841235431e-05
1.086786295472418e-05
1.11190591951065e-05
1.142601767047789e-05
1.176597058461601e-05
1.214264438840687e-05
1.25460996463858e-05
1.297139220503066e-05
1.341443947715475e-05
1.387309192478231e-05
1.434239835757548e-05
1.481926230092648e-05
1.53000285571939e-05
1.578019297677187e-05
1.625770776835531e-05
1.672838775544524e-05
1.719144105038242e-05
1.764482301460169e-05
1.808767299184695e-05
1.851852580773091e-05
1.893589110232162e-05
1.933832043591785e-05
1.972494737122838e-05
2.00947981759903e-05
2.044727179763562e-05
2.078183062267415e-05
2.109832716091214e-05
2.139666633820564e-05
2.167720036052323e-05
2.194116538346554e-05
2.218834154274747e-05
2.241583221222312e-05
2.262627001428684e-05
2.281978508089681e-05
2.29964334634374e-05
2.315699798160239e-05
2.330160444495903e-05
2.343097545432252e-05
2.354509650987886e-05
2.364448080930041e-05
2.372942618366454e-05
2.380016602019754e-05
2.385707557272739e-05
2.390038514715384e-05
2.393015389672193e-05
2.394672639600542e-05
2.395011626439872e-05
2.394055677795033e-05
2.391812259840885e-05
2.388289227610929e-05
2.3835102319138e-05
2.377474580009963e-05
2.370184109327501e-05
2.361654875394854e-05
2.351882349956664e-05
2.340888894515134e-05
2.328673016074491e-05
2.315231291861528e-05
2.300577412045619e-05
2.284709066666693e-05
2.267623665363085e-05
2.249334946153458e-05
2.229839093709012e-05
2.209147087557844e-05
2.187265043228938e-05
2.16420761534843e-05
2.13978770744856e-05
2.113816053816109e-05
2.086389620829925e-05
2.057505537380389e-05
2.027178645763553e-05
1.9953971927104e-05
1.962179225713028e-05
1.927555959886778e-05
1.891552513879971e-05
1.854161809264205e-05
1.815443755036297e-05
1.775397872133695e-05
1.734225457802685e-05
1.692013885557737e-05
1.648902165122543e-05
1.605038680738497e-05
1.560682549691933e-05
1.516139130275117e-05
1.471661835429136e-05
1.427459759015809e-05
1.383839262467672e-05
1.341021457731986e-05
1.299282610100255e-05
1.258763884347302e-05
1.219854141712555e-05
1.183217976798499e-05
1.149094580471744e-05
1.118687365522496e-05
1.092347275059291e-05
1.072147155336052e-05
1.059978657645048e-05
1.43577927900683e-05
1.436437629062994e-05
1.452690061173316e-05
1.479049314308766e-05
1.513785728621807e-05
1.555581100789694e-05
1.601489361306866e-05
1.651887914499431e-05
1.705351732755803e-05
1.761248831497714e-05
1.818926942658668e-05
1.878068327368066e-05
1.938040645157218e-05
1.998405447787786e-05
2.058694544835246e-05
2.118355761580683e-05
2.177143197482077e-05
2.234567763443845e-05
2.290553776906592e-05
2.34487955764886e-05
2.397469175191447e-05
2.448179774014606e-05
2.49687085772362e-05
2.543408679546802e-05
2.587728203752813e-05
2.629752964273269e-05
2.669450187555139e-05
2.7067938323693e-05
2.741802820051843e-05
2.77450151599775e-05
2.804990262065512e-05
2.833435474583402e-05
2.859629736675208e-05
2.883498179505789e-05
2.9053178876204e-05
2.92509217339799e-05
2.942877518002578e-05
2.958753560195774e-05
2.972770268932242e-05
2.985006039446059e-05
2.995486546506068e-05
3.00427899690463e-05
3.011427320462227e-05
3.016971655798872e-05
3.020963499060345e-05
3.023438255778182e-05
3.024418236451151e-05
3.023948277869497e-05
3.022041279806829e-05
3.01873060902914e-05
3.014033291695404e-05
3.007965362026066e-05
3.000559143371572e-05
2.99181893420889e-05
2.981753875502278e-05
2.970384064644979e-05
2.957709369102722e-05
2.943758468439709e-05
2.928522477845719e-05
2.912000101974225e-05
2.894201454948013e-05
2.875122434224157e-05
2.854756752356928e-05
2.833112588886462e-05
2.81017931359212e-05
2.785959333189272e-05
2.760447617815402e-05
2.73364420045144e-05
2.705135460270001e-05
2.674963110135456e-05
2.643159794180676e-05
2.609700290734069e-05
2.574583171953664e-05
2.537781993576044e-05
2.499302159325643e-05
2.459164499917308e-05
2.417383874149437e-05
2.37394187887292e-05
2.328898882257858e-05
2.282257126016645e-05
2.234218267375377e-05
2.184740218540909e-05
2.134258517889601e-05
2.082705970051751e-05
2.03049517881797e-05
1.977896022940528e-05
1.925245197987725e-05
1.872760824264713e-05
1.820828718915894e-05
1.76970436609433e-05
1.719734737264383e-05
1.671106981764987e-05
1.624318020383866e-05
1.580212344918257e-05
1.539152620639527e-05
1.502666386188268e-05
1.471318352543316e-05
1.447763608420745e-05
1.434503463487019e-05
1.859511625428293e-05
1.863384646407595e-05
1.886025149578639e-05
1.920884881006353e-05
1.965569656558707e-05
2.018581030977529e-05
2.076308225886884e-05
2.139092520870987e-05
2.205030859992388e-05
2.273373215149447e-05
2.343229398339637e-05
2.41418772659399e-05
2.485503066070869e-05
2.556633221868139e-05
2.627042228796696e-05
2.696118027183313e-05
2.763604320241371e-05
2.828983426498709e-05
2.892205673572753e-05
2.95306067170997e-05
3.011502268420362e-05
3.067413032607143e-05
3.120680765191109e-05
3.171200501298498e-05
3.218940859381923e-05
3.263857207610899e-05
3.305951680183024e-05
3.345232050215001e-05
3.381755477312483e-05
3.415588188589732e-05
3.446921196168778e-05
3.475804906774095e-05
3.502024598038482e-05
3.525698522764516e-05
3.547059189620432e-05
3.566128518780784e-05
3.582997368219367e-05
3.597751324482102e-05
3.610469857835246e-05
3.621237733906089e-05
3.63010506611551e-05
3.637151617756617e-05
3.642434591431042e-05
3.646008749984231e-05
3.647936887051658e-05
3.648265813108642e-05
3.647032364458876e-05
3.64428992620659e-05
3.640062142737976e-05
3.634390778401336e-05
3.627301413285828e-05
3.618817207096063e-05
3.608977087981897e-05
3.59778993912779e-05
3.58527089455093e-05
3.571442310527958e-05
3.556310686225836e-05
3.539903202042972e-05
3.522205254429356e-05
3.503216861050559e-05
3.482942814612972e-05
3.461375686429731e-05
3.438503971373776e-05
3.414328235447744e-05
3.388829687948111e-05
3.36200085202799e-05
3.333823575731527e-05
3.304174077419683e-05
3.272666983090753e-05
3.239405864571082e-05
3.204384685122486e-05
3.16755915033299e-05
3.128912499109792e-05
3.088403963076826e-05
3.046026335131564e-05
3.001789184855131e-05
2.95569735879802e-05
2.907722938314925e-05
2.85792422934163e-05
2.806303187040529e-05
2.753048418358102e-05
2.698016026347867e-05
2.641881532123446e-05
2.58439062753082e-05
2.526085404149012e-05
2.467189069342709e-05
2.408110779563305e-05
2.349069136389859e-05
2.290517090403842e-05
2.232735041783504e-05
2.176132388841766e-05
2.120938448249853e-05
2.067752749827298e-05
2.01758373985034e-05
1.970931487352705e-05
1.929635720800369e-05
1.894500253611426e-05
1.868713129476721e-05
1.855383666860641e-05
2.319559744641439e-05
2.327376511031642e-05
2.356677633014568e-05
2.400033174802228e-05
2.454289225575392e-05
2.517829160195485e-05
2.58645071800305e-05
2.660407610452867e-05
2.737336259996338e-05
2.816378915003812e-05
2.896476501313355e-05
2.977129147225528e-05
3.057518932099878e-05
3.137038103396138e-05
3.215122240873197e-05
3.291141261735927e-05
3.364855208084556e-05
3.435753475091442e-05
3.503826350854427e-05
3.568894565618031e-05
3.630951836941914e-05
3.689918069638934e-05
3.745718732255274e-05
3.798285080612793e-05
3.847622314138268e-05
3.893719956110374e-05
3.936614784371417e-05
3.97634773592627e-05
4.013013944877726e-05
4.046742763738734e-05
4.077747186737306e-05
4.105923897253995e-05
4.131208551298809e-05
4.153808657133075e-05
4.173908591082202e-05
4.191561038519948e-05
4.206877078255024e-05
4.219951698583599e-05
4.230885500811114e-05
4.239770405925515e-05
4.246676667764345e-05
4.251694029733181e-05
4.254891649413233e-05
4.25633653077159e-05
4.25610067857755e-05
4.25424118531284e-05
4.2508071856959e-05
4.245859232664032e-05
4.23943058778854e-05
4.231569927025305e-05
4.222310235917959e-05
4.21168072344326e-05
4.199725055122296e-05
4.186456166863047e-05
4.171893668783719e-05
4.156061880070114e-05
4.138974040430676e-05
4.120647648386101e-05
4.101067195356941e-05
4.080231662312164e-05
4.058139569562934e-05
4.034778858658581e-05
4.010131650502856e-05
3.984189725605748e-05
3.956925145201804e-05
3.928320515477564e-05
3.898372653628861e-05
3.866678803059562e-05
3.83313157394493e-05
3.797767497739995e-05
3.760554116457802e-05
3.721431286874501e-05
3.680368758902511e-05
3.637313272132488e-05
3.59224660578371e-05
3.545168346094377e-05
3.496075315327871e-05
3.444932386383285e-05
3.391792703725788e-05
3.336653917255593e-05
3.279690963421049e-05
3.220704419036084e-05
3.160514223245906e-05
3.098745005688932e-05
3.036023581259034e-05
2.972537190725303e-05
2.908747571873545e-05
2.844873898574986e-05
2.781419938646195e-05
2.718685184638254e-05
2.657129623665547e-05
2.597020810476333e-05
2.53904929645267e-05
2.484364152757276e-05
2.433607132363874e-05
2.388897509322159e-05
2.351282679570568e-05
2.324403440816206e-05
2.311940490975423e-05
2.805329905367132e-05
2.817477991696184e-05
2.853270534761905e-05
2.904608870391527e-05
2.967558458165566e-05
3.040418644971061e-05
3.118516624026174e-05
3.201965465450036e-05
3.288014568803467e-05
3.375698115049073e-05
3.463882011921789e-05
3.551982914531143e-05
3.639152584573361e-05
3.724754348136387e-05
3.808227441455786e-05
3.888955554547955e-05
3.966731414461664e-05
4.041075100571268e-05
4.112020993746208e-05
4.179430503504533e-05
4.243338891818456e-05
4.303706594374164e-05
4.36049798974055e-05
4.413680765972033e-05
4.463293844631894e-05
4.509358163715438e-05
4.551941249481604e-05
4.59111439616636e-05
4.6270128161626e-05
4.659839937291798e-05
4.689697766783026e-05
4.716470474302928e-05
4.740244810466643e-05
4.761244661579785e-05
4.779624115957027e-05
4.795466509753414e-05
4.808894483662907e-05
4.820014256797366e-05
4.828941101446891e-05
4.835774769996828e-05
4.840601660117435e-05
4.843519968131952e-05
4.84460951805056e-05
4.843947614273076e-05