/*--------------------------------*- C++ -*----------------------------------*\
| =========                 |                                                 |
| \\      /  F ield         | OpenFOAM: The Open Source CFD Toolbox           |
|  \\    /   O peration     | Version:  v1812                                 |
|   \\  /    A nd           | Web:      www.OpenFOAM.com                      |
|    \\/     M anipulation  |                                                 |
\*---------------------------------------------------------------------------*/
FoamFile
{
    version     2.0;
    format      ascii;
    class       volScalarField;
    location    "0";
    object      surfaceFriction;
}
// * * * * * * * * * * * * * * * * * * * * * * * * * * * * * * * * * * * * * //

dimensions      [0 0 0 0 0 0 0];


internalField   uniform 0;

boundaryField
{
    bottomWall
    {
        type            calculated;
        value           nonuniform List<scalar> 
99
(
-0.07238920563709964
-4.737906244989084e-05
-0.0421643079203211
-0.2228625984544716
-0.393223261619951
-0.2422866412123255
-0.1975278165100602
-0.1510859426267708
-0.1265572972063148
-0.1383642706222503
-0.1774751813934643
-0.1180195700901335
-0.1529765852664881
-0.1866922963392157
-0.2167901346800329
-0.2337006535176158
-0.2382952626259854
-0.2385440538069029
-0.2310186407278971
-0.2139589224435604
-0.2035049231369679
-0.239462904009629
-0.2984427412016774
-0.3403695725554905
-0.3704577711960243
-0.3856320288691088
-0.3885169502624874
-0.3816561730577008
-0.3649737804487326
-0.3454415061041718
-0.5933552188549334
-0.5567235122715489
-0.5196590909892114
-0.4774079850600003
-0.42849978402097
-0.3875440238348127
-0.344497046142069
-0.3013227994792462
-0.2653551502933662
-0.227187310184459
-0.1932255816160134
-0.1578477812060537
-0.1148161024794853
-0.07950532659559478
-0.04683931047661894
-0.01720125120407378
-0.003439485534830981
0.006947714966733465
0.01666323676983887
0.02498845755130713
0.03178014788605552
0.0381819862362564
0.04476361878296358
0.04933228971547688
0.0551805636325394
0.06166323822564386
0.06577838696456317
0.06867877523237041
0.07279629056182192
0.07694684306134454
0.07940300793505944
0.08121151118602736
0.08271526860043985
0.08395778187970367
0.08220162241668739
0.08011174061968368
0.07946107683257636
0.07674112197011751
0.07371376060402823
0.07108198026971044
0.06562578892026949
0.05894931085011875
0.0523691395940015
0.04492939595901087
0.03553879862457051
0.0230369510981863
0.009923387361620488
-0.007513950618060438
-0.03563725157682158
-0.02185901189801074
0.02602107827946553
0.1326304439996083
0.2607998999718073
0.3878388378372204
0.6187826342414805
0.8950572346619596
1.106307767654105
1.303484499933591
1.509863551806195
1.845970816766603
2.231373440428973
2.673512107767015
3.469164014845634
4.204781716305848
4.810316917376537
4.219516779091009
1.931960881042323
0.3079622801051862
-0.07240183001019146
)
;
    }
    defaultFaces
    {
        type            symmetry;
    }
    inlet
    {
        type            cyclic;
    }
    outlet
    {
        type            cyclic;
    }
    topWall
    {
        type            calculated;
        value           uniform 0;
    }
}


// ************************************************************************* //
