/*--------------------------------*- C++ -*----------------------------------*\
| =========                 |                                                 |
| \\      /  F ield         | OpenFOAM: The Open Source CFD Toolbox           |
|  \\    /   O peration     | Version:  2.3.x                                 |
|   \\  /    A nd           | Web:      www.OpenFOAM.org                      |
|    \\/     M anipulation  |                                                 |
\*---------------------------------------------------------------------------*/
FoamFile
{
    version     2.0;
    format      ascii;
    class       volScalarField;
    location    "0";
    object      p;
}
// * * * * * * * * * * * * * * * * * * * * * * * * * * * * * * * * * * * * * //

dimensions      [ 0 2 -2 0 0 0 0 ];

internalField   nonuniform List<scalar> 
14751
(4.7543088330271772e+01
2.3782600402832038e+01
2.3788833618164059e+01
2.3795345306396481e+01
2.3802198410034180e+01
2.3809286117553722e+01
2.3816509246826179e+01
2.3823860168457038e+01
2.3831310272216800e+01
2.3838703155517582e+01
2.3845954895019538e+01
2.3853164672851559e+01
2.3859764099121101e+01
2.3866292953491222e+01
2.3872522354125980e+01
2.3878524780273441e+01
2.3884248733520501e+01
2.3889419555664059e+01
2.3894741058349599e+01
2.3899753570556641e+01
2.3903739929199219e+01
2.3907417297363281e+01
2.3910842895507820e+01
2.3913776397705082e+01
2.3916282653808601e+01
2.3918388366699219e+01
2.3920185089111321e+01
2.3921665191650401e+01
2.3922800064086921e+01
2.3923639297485359e+01
2.3924156188964840e+01
2.3924373626708981e+01
2.3924247741699219e+01
2.3923816680908200e+01
2.3923089981079102e+01
2.3922149658203121e+01
2.3920997619628899e+01
2.3919536590576179e+01
2.3917881011962901e+01
2.3916021347045898e+01
2.3913894653320320e+01
2.3911556243896481e+01
2.3909023284912099e+01
2.3906036376953121e+01
2.3902828216552741e+01
2.3899732589721680e+01
2.3896530151367180e+01
2.3893083572387699e+01
2.3889440536499020e+01
2.3885704040527340e+01
2.3881822586059581e+01
2.3877784729003899e+01
2.3873620986938480e+01
2.3869377136230462e+01
2.3865036010742180e+01
2.3860134124755859e+01
2.3855106353759759e+01
2.3850433349609379e+01
2.3845699310302741e+01
2.3840955734252919e+01
2.3836187362670898e+01
2.3831405639648441e+01
2.3826578140258778e+01
2.3821689605712901e+01
2.3816902160644538e+01
2.3812232971191399e+01
2.3807540893554680e+01
2.3802385330200199e+01
2.3797412872314460e+01
2.3793029785156239e+01
2.3788587570190419e+01
2.3784370422363281e+01
2.3780376434326179e+01
2.3776412963867180e+01
2.3772666931152340e+01
2.3769107818603519e+01
2.3765758514404300e+01
2.3762645721435540e+01
2.3759639739990241e+01
2.3756881713867180e+01
2.3754230499267582e+01
2.3751834869384759e+01
2.3749965667724599e+01
2.3748409271240241e+01
2.3747135162353519e+01
2.3746206283569339e+01
2.3745605468750000e+01
2.3745300292968761e+01
2.3745452880859379e+01
2.3745939254760739e+01
2.3746902465820320e+01
2.3748332977294918e+01
2.3750200271606442e+01
2.3752517700195320e+01
2.3755397796630859e+01
2.3758749008178722e+01
2.3762691497802741e+01
2.3767078399658200e+01
4.7543088329210192e+01)
;
boundaryField
{
    bottomWall 
    { 
    type nonuniform List<scalar>
99
(

)
;
    }
    topWall
    {
        type            zeroGradient;
    }
    inlet
    {
        type            cyclic;
    }
    outlet
    {
        type            cyclic;
    }
    defaultFaces
    {
        type            symmetry;
    }
}