/*--------------------------------*- C++ -*----------------------------------*\
| =========                 |                                                 |
| \\      /  F ield         | OpenFOAM: The Open Source CFD Toolbox           |
|  \\    /   O peration     | Version:  2.1.1                                 |
|   \\  /    A nd           | Web:      www.OpenFOAM.org                      |
|    \\/     M anipulation  |                                                 |
\*---------------------------------------------------------------------------*/
FoamFile
{
    version     2.0;
    format      ascii;
    class       volSymmTensorField;
    location    "0";
    object      Tau;
}
// * * * * * * * * * * * * * * * * * * * * * * * * * * * * * * * * * * * * * //

dimensions      [0 2 -2 0 0 0 0];

internalField   nonuniform List<symmTensor> 
14751
((-1.7513217753475883e-03 -1.0407935880148118e-04 -1.1251328497227502e-05 -1.6797697479885929e-05 -3.1558716223825635e-07 -3.3698073217815379e-04)
(5.7299033505842079e-04 5.4520860430784523e-06 2.9630331255248160e-07 5.2613006573665178e-07 1.1584930348362832e-08 2.0959094399586320e-04)
(5.9077533660456538e-04 5.9624758250720342e-06 -4.1310677545425278e-08 5.8850196182902437e-07 1.6357612153683476e-08 2.1886732429265979e-04)
(6.1245670076459635e-04 6.5735757743823342e-06 -5.3946661182635580e-07 6.6607196913537337e-07 2.4658589836690219e-08 2.2956554312258959e-04)
(6.4041744917631138e-04 7.3408459684287664e-06 -9.3290685754254799e-07 7.7153083566372516e-07 3.2512417647012619e-08 2.4216788006015119e-04)
(6.7369802854955196e-04 8.2326077972538752e-06 -1.0848856391021400e-06 9.0582625489332724e-07 3.7698612231906743e-08 2.5650407769717282e-04)
(7.1192579343914975e-04 9.2509326350409538e-06 -9.8499640444060788e-07 1.0707053661462851e-06 4.3859991194494803e-08 2.7221610071137542e-04)
(7.5377145549282442e-04 1.0386476787971333e-05 -6.3897243762767175e-07 1.2651777296923683e-06 5.2833385666417598e-08 2.8902286430820817e-04)
(7.9966417979449045e-04 1.1701953553711064e-05 -1.4545373971941444e-07 1.5060952591738896e-06 5.9371927818574477e-08 3.0716619221493602e-04)
(8.4802217315882444e-04 1.3144359400030226e-05 4.1432645048189443e-07 1.7831798686529510e-06 7.2618519197931164e-08 3.2510200981050719e-04)
(9.0150150936096896e-04 1.4645546798419671e-05 7.7265872278076141e-07 2.1141563593118921e-06 9.4707374387326126e-08 3.4286588197574019e-04)
(5.6677631800994277e-04 8.7108946900116280e-06 4.9174667537954520e-07 1.3001574643567437e-06 6.0401553980682365e-08 2.1732819732278580e-04)
(2.0489763119257981e-04 2.0379543457238461e-06 2.3762980561059521e-07 3.0662215522170300e-07 1.6635995692126926e-08 8.3239705418236554e-05)
(2.1266496332827961e-04 2.2034055291442201e-06 4.0797860378916079e-07 3.4185819686172181e-07 1.6708206374005385e-08 8.6114800069481134e-05)
(2.2057487512938681e-04 2.3665725166210900e-06 4.3540899241634179e-07 3.7973637745380978e-07 1.3580665481072174e-08 8.9011577074415982e-05)
(2.2927451936993740e-04 2.5295721570728338e-06 3.5600317005446419e-07 4.1989699184341578e-07 1.1239796648965241e-08 9.2142188805155456e-05)
(2.3881794186308980e-04 2.7211876840738118e-06 2.6883458303927899e-07 4.6174687895472738e-07 1.6411389580639479e-08 9.5631432486698045e-05)
(2.4745959672145540e-04 2.9312973310879902e-06 2.0516029053396781e-07 5.0397693485137996e-07 2.0995956973024480e-08 9.8604563390836120e-05)
(2.5602706591598679e-04 3.1257291084330059e-06 1.1417255763035428e-07 5.5078146488085622e-07 1.6229948940349459e-08 1.0147756256628782e-04)
(2.6489875745028257e-04 3.3064825402107081e-06 8.5379440406541094e-08 5.9513359929042064e-07 1.1765513008299422e-08 1.0460172052262350e-04)
(2.7220728225074698e-04 3.4566919566714201e-06 3.5167090572940662e-07 6.3013902718012105e-07 1.1372032204803872e-08 1.0695857054088263e-04)
(2.7825828874483699e-04 3.5620105336420238e-06 9.4411922191284237e-07 6.6130280629295157e-07 9.9678274523284927e-09 1.0887966345762834e-04)
(2.8355972608551378e-04 3.6469241422310002e-06 1.6459086964459857e-06 6.8495381810862465e-07 1.0747709389136162e-08 1.1071166954934598e-04)
(2.8677051886916161e-04 3.7127890664123701e-06 2.0961026621080241e-06 6.9922873535688257e-07 1.4448755081275522e-08 1.1191453086212277e-04)
(2.8780454886145879e-04 3.7437628179759481e-06 2.3244160729518622e-06 7.0838314059074037e-07 1.6709597261410636e-08 1.1281883053015918e-04)
(2.8776808176189661e-04 3.7482554944290318e-06 2.2555041141458779e-06 7.1355987074639415e-07 2.0620888108169321e-08 1.1334130977047609e-04)
(2.8750312048941862e-04 3.7331492421799339e-06 1.9331978364789393e-06 7.1646064725428005e-07 2.4231994188994580e-08 1.1364663077984007e-04)
(2.8748979093506938e-04 3.6970791370549701e-06 1.6471558410557918e-06 7.1826127623353376e-07 2.9564048986685521e-08 1.1409785656724127e-04)
(2.8779660351574421e-04 3.6595156416296959e-06 1.3813044006383279e-06 7.1973443027673056e-07 2.9051832939330779e-08 1.1467032891232520e-04)
(2.8813624521717418e-04 3.6456149246077980e-06 1.1302028042337042e-06 7.2308068865822861e-07 2.1301389097061480e-08 1.1528342292876914e-04)
(2.8798048151656980e-04 3.6322908272268259e-06 1.0625931281538215e-06 7.2765396907925595e-07 1.2727900511322332e-08 1.1578655539778993e-04)
(2.8854340780526400e-04 3.6180063034407799e-06 1.3000482113056933e-06 7.3243313636339735e-07 8.0848980843484242e-09 1.1614584946073592e-04)
(2.8981664218008518e-04 3.6285175610828442e-06 1.4672741599497385e-06 7.3760872965067403e-07 1.5214601134516670e-08 1.1675160203594714e-04)
(2.9018925852142280e-04 3.6225446820026259e-06 1.3958210729470011e-06 7.4147453688055975e-07 2.1524776627757098e-08 1.1742977949324997e-04)
(2.8994638705626141e-04 3.5754083000938400e-06 1.1549720966286259e-06 7.4098602453886997e-07 2.4309677826295219e-08 1.1750876728910951e-04)
(2.9033340979367500e-04 3.5360803849471259e-06 9.2807783858006577e-07 7.4063200372620475e-07 2.3104224311509821e-08 1.1780184286180884e-04)
(2.9168152832426142e-04 3.5324219425092460e-06 9.5587824944232125e-07 7.4462110433159978e-07 2.1680918393940380e-08 1.1881021055160090e-04)
(2.9327865922823537e-04 3.5450889299681880e-06 8.5123156168265258e-07 7.5171237767790444e-07 2.3404513882496761e-08 1.1979145347140729e-04)
(2.9501371318474417e-04 3.5489292713464242e-06 7.9597236890549539e-07 7.5925788678432582e-07 1.4364837319646995e-08 1.2067490752087906e-04)
(2.9674865072593098e-04 3.5490113532432579e-06 1.0774932661661296e-06 7.6313165209285216e-07 1.5662838137586732e-08 1.2155348667874932e-04)
(2.9718334553763281e-04 3.5277525967103421e-06 1.2121799954911694e-06 7.6148114658280985e-07 2.8405956697952199e-08 1.2174333096481860e-04)
(2.9730473761446779e-04 3.4944391700264541e-06 8.9530715285945917e-07 7.5825255407835357e-07 3.0829177433133743e-08 1.2176892778370529e-04)
(2.9794161673635239e-04 3.4799252262018858e-06 4.8180311296164302e-07 7.5784691944136284e-07 2.9714971816474641e-08 1.2203364894958212e-04)
(2.9901138623245060e-04 3.4524236980360001e-06 3.3422838896512980e-07 7.5662359222405939e-07 2.5447075557849540e-08 1.2239694478921592e-04)
(3.0062973382882779e-04 3.4268132367287758e-06 3.4382370017738140e-07 7.5397281307232344e-07 2.2824465872872679e-08 1.2276088818907738e-04)
(3.0167767545208340e-04 3.4009992759820298e-06 3.3341106586703978e-07 7.5123415399502836e-07 2.3735402976399200e-08 1.2273702304810286e-04)
(3.0259927734732622e-04 3.3690087093418701e-06 2.5269224579460559e-07 7.5059506343677640e-07 2.4597607506393618e-08 1.2306499411351979e-04)
(3.0303269159048801e-04 3.3370679375366299e-06 2.9486935204658938e-07 7.4834912311416701e-07 2.1892404333812020e-08 1.2353330384939909e-04)
(3.0242372304201121e-04 3.3139667721115980e-06 4.1812029394350242e-07 7.4450099418754679e-07 1.8768908205402113e-08 1.2342333502601832e-04)
(3.0298554338514799e-04 3.3100907330663180e-06 4.8532785967836379e-07 7.5058926540805260e-07 8.1124298390022886e-09 1.2363892165012658e-04)
(3.0670023988932382e-04 3.3238288779102740e-06 8.0076597441802743e-07 7.6803110005130303e-07 3.3364586649042841e-09 1.2438924750313163e-04)
(3.1207039137370879e-04 3.3722371881594881e-06 1.0666018397387234e-06 7.8627982702528243e-07 1.0932176053302101e-08 1.2500147568061948e-04)
(3.1621445668861259e-04 3.4192157727375161e-06 9.1487981990212585e-07 8.0379686551168561e-07 1.6041887818118994e-08 1.2550299288704991e-04)
(3.2012420706450939e-04 3.4506820156821041e-06 5.1772764209090383e-07 8.2589508565433778e-07 1.9084350100229130e-08 1.2659642379730940e-04)
(3.2478236244060099e-04 3.5089935863652499e-06 1.4484427879324357e-07 8.4874397998646600e-07 1.4667590697570176e-08 1.2773103662766516e-04)
(3.2884531538002198e-04 3.5507684970070841e-06 -1.8229721376883390e-07 8.6838753077245201e-07 1.5819242804582245e-08 1.2805938604287803e-04)
(3.3206306397914881e-04 3.5751895666180640e-06 -4.4522118969325680e-07 8.8372007667203444e-07 7.3698602776062216e-09 1.2808335304725915e-04)
(3.3419410465285182e-04 3.5961006688012280e-06 -6.5662271708788456e-07 8.9699813088373038e-07 -7.2464230171931376e-09 1.2819893890991807e-04)
(3.3547860221005982e-04 3.5929783734900420e-06 -6.2839683323545625e-07 9.0821549747488461e-07 -3.8308303196288299e-09 1.2834776134695858e-04)
(3.3670122502371658e-04 3.5902176023228098e-06 -3.6780625123355998e-07 9.1693971171480381e-07 -7.0710470811974336e-10 1.2839585542678833e-04)
(3.3827600418589998e-04 3.5766070141107780e-06 -1.5123156060781184e-07 9.2371089976950316e-07 2.7983624306671122e-09 1.2780627002939582e-04)
(3.4023684565909201e-04 3.5784842111752360e-06 1.2169385854576831e-07 9.3003762913212995e-07 9.6100922775121944e-09 1.2713373871520162e-04)
(3.4112477442249661e-04 3.5870239116775342e-06 1.6181392936687189e-07 9.3405685674952121e-07 9.3564089809206052e-09 1.2633533333428204e-04)
(3.3985340269282460e-04 3.5646066862682342e-06 1.5648080875507731e-07 9.3166659098642423e-07 1.3754473116023291e-09 1.2497318675741553e-04)
(3.3822213299572462e-04 3.5029718219448118e-06 3.8562475879189161e-07 9.2689208486262942e-07 -5.5771156581840842e-09 1.2372795026749372e-04)
(3.3766950946301222e-04 3.4406839404255160e-06 7.2048601396090817e-07 9.2062282419647101e-07 1.4489582866872297e-09 1.2277049245312810e-04)
(3.3631548285484319e-04 3.3888668440340561e-06 6.0702302562276600e-07 9.1038384653074900e-07 1.2026950990673411e-08 1.2129796959925442e-04)
(3.3342934329994017e-04 3.3222818274225578e-06 1.8270321788804722e-07 8.9703968342291784e-07 -5.2382098658654275e-10 1.1879728117492050e-04)
(3.3122766762971878e-04 3.2646300951455478e-06 3.2468491895087942e-07 8.8475360371376155e-07 -6.4971783508838143e-09 1.1670019739540294e-04)
(3.2967573497444402e-04 3.2300733892043358e-06 4.7574633299518599e-07 8.7095207845777622e-07 7.4890635914925968e-09 1.1556470417417586e-04)
(3.2588141039013863e-04 3.1745692012918880e-06 3.5040594070778758e-07 8.5107956238061878e-07 1.1048234327404316e-08 1.1355169408489017e-04)
(3.2124645076692099e-04 3.0699670787726059e-06 4.1104090087173978e-07 8.2858150562969957e-07 8.8371088224903360e-10 1.1093416105723009e-04)
(3.1773312366567558e-04 2.9850630198779982e-06 7.9810985198491835e-07 8.0483323472435576e-07 -1.2673863736267776e-08 1.0887889948207886e-04)
(3.1336356187239278e-04 2.9244788493087981e-06 1.2018485904263798e-06 7.8329054531423015e-07 -1.9662542705134456e-09 1.0715838288888337e-04)
(3.0788761796429759e-04 2.8307090360613078e-06 1.0649437172105536e-06 7.6218748290557425e-07 1.1628292995169431e-08 1.0527245467528699e-04)
(3.0238402541726822e-04 2.7223977667745199e-06 8.3568892250696081e-07 7.3348621754121258e-07 1.5386085738811062e-09 1.0291850776411592e-04)
(2.9677763814106578e-04 2.5987012577388660e-06 9.4393158178718295e-07 6.9444598693735315e-07 -2.3027471041103800e-09 1.0034911974798888e-04)
(2.9123178683221340e-04 2.4717760425119199e-06 8.9067731323666521e-07 6.4866458160395258e-07 3.7806566766107599e-09 9.7858792287297533e-05)
(2.8448674129322182e-04 2.3525567485194179e-06 4.8704760047257878e-07 5.9869091728614876e-07 7.0284547071253201e-09 9.5231836894527078e-05)
(2.7577733271755278e-04 2.2086701392254318e-06 2.1215461742940539e-07 5.4593556342297244e-07 7.1862666928268482e-09 9.2212729214224964e-05)
(2.6520967367105181e-04 2.0394918465171941e-06 1.3348153515835293e-07 4.8854417400434624e-07 1.2156927686746144e-09 8.8756569311954081e-05)
(2.5423613260500138e-04 1.8890485762312892e-06 1.4650223079115676e-07 4.3196206434004120e-07 -5.2602158184811279e-09 8.5201099864207195e-05)
(2.4395760556217280e-04 1.7608554117032327e-06 2.4016469524212880e-07 3.8298310300888261e-07 -2.9860687256189059e-09 8.2047423347830786e-05)
(2.3396295728161939e-04 1.6262746385109494e-06 2.7451631012809241e-07 3.3808555599534879e-07 5.9899361026793940e-09 7.9100835137069225e-05)
(2.2482089116238060e-04 1.4994723187555792e-06 2.8095581683373899e-07 2.9895335273977258e-07 8.7878797572216172e-09 7.6457785326056182e-05)
(2.1663561346940699e-04 1.3877536275685998e-06 3.3249961006731599e-07 2.6601051672514581e-07 5.9381610739706039e-09 7.4332056101411581e-05)
(2.0984451111871741e-04 1.2935104223288363e-06 3.2912379310801038e-07 2.3727311315724359e-07 5.2343613887728679e-09 7.2643495514057577e-05)
(6.1532470863312483e-04 6.1383366301015477e-06 1.0767610092443647e-06 9.9881310688942904e-07 2.1834697605527260e-08 1.9517162581905723e-04)
(9.9487416446208954e-04 1.0483552614459768e-05 1.4971624295867514e-06 1.6372210893678130e-06 2.3944467741898741e-08 3.1154992757365102e-04)
(9.4202859327197075e-04 9.5368359325220808e-06 9.8287796390650328e-07 1.4093437812334741e-06 2.9951892077662019e-09 2.9848076519556338e-04)
(8.9051248505711555e-04 8.7325806816807017e-06 7.0312722755261337e-07 1.2217939229230979e-06 4.4481316407996019e-09 2.8529952396638702e-04)
(8.3964562509208918e-04 7.9891242421581393e-06 3.3647671671133139e-07 1.0511334949114826e-06 8.9094749355922448e-09 2.7198233874514699e-04)
(7.8878202475607395e-04 7.2632792580407121e-06 -4.1555818341976198e-08 9.0055203827432695e-07 5.2448196896648361e-09 2.5832169922068721e-04)
(7.4002181645482779e-04 6.6109669205616220e-06 -2.8559051656884538e-07 7.7417712418537121e-07 5.6523790092910539e-09 2.4543318431824440e-04)
(6.9516547955572605e-04 6.0975594351475601e-06 -4.5382785174297158e-07 6.7594527308756359e-07 1.2763239354285361e-09 2.3377662000711999e-04)
(6.5448804525658477e-04 5.6649369071237743e-06 -4.5723612629444682e-07 5.9800942153742664e-07 -1.4873113851621156e-10 2.2336412803269920e-04)
(6.2147219432517875e-04 5.3192779887467623e-06 -3.5823083521790982e-07 5.4432706519946805e-07 4.3307082364663083e-09 2.1515844855457539e-04)
(5.9376633726060401e-04 5.0783810365828677e-06 -1.7410893349278922e-07 5.0539193807708216e-07 2.0461150551653881e-09 2.0826056424994019e-04)
(-1.7512456140664334e-03 -1.0407700301392510e-04 -1.1251118410994956e-05 -1.6797358974131265e-05 -3.1558156169844883e-07 -3.3696085375772931e-04))
;

boundaryField
{
    bottomWall
    {
        type            zeroGradient;
    }
    defaultFaces
    {
        type            symmetry;
    }
    inlet
    {
        type            cyclic;
    }
    outlet
    {
        type            cyclic;
    }
    topWall
    {
        type            zeroGradient;
    }
}