/*--------------------------------*- C++ -*----------------------------------*\
| =========                 |                                                 |
| \\      /  F ield         | OpenFOAM: The Open Source CFD Toolbox           |
|  \\    /   O peration     | Version:  2.3.x                                 |
|   \\  /    A nd           | Web:      www.OpenFOAM.org                      |
|    \\/     M anipulation  |                                                 |
\*---------------------------------------------------------------------------*/
FoamFile
{
    version     2.0;
    format      ascii;
    class       volVectorField;
    location    "0";
    object      U;
}
// * * * * * * * * * * * * * * * * * * * * * * * * * * * * * * * * * * * * * //

dimensions      [0 1 -1 0 0 0 0];

internalField   nonuniform List<vector> 
14751
((6.1375348109687977e-02 -3.6485996411151532e-06 2.1460345778561893e-04)
(6.6747657954692841e-02 -7.7712147685815580e-06 3.2508792355656618e-04)
(6.8672746419906616e-02 -7.3883584263967359e-06 3.3434000215493143e-04)
(7.0749983191490173e-02 8.9622035375214182e-06 3.5966647556051617e-04)
(7.3107138276100159e-02 8.3741952039417821e-07 3.7281442200765019e-04)
(7.5648263096809373e-02 1.9190424609405454e-06 3.9905565790832043e-04)
(7.8222498297691345e-02 7.3882242759282244e-06 4.2318782652728260e-04)
(8.0776840448379517e-02 -5.4923607422097120e-06 4.1466485708951961e-04)
(8.3222359418869019e-02 7.9686287790536880e-06 5.0516333431005478e-04)
(8.5464254021644606e-02 2.0973553546355099e-05 5.6142127141356457e-04)
(8.7430007755756378e-02 2.4097338609863079e-05 5.7385093532502662e-04)
(5.9566926211118698e-02 1.7667389329290017e-05 4.2015622602775698e-04)
(3.0714750289916999e-02 5.2874584071105338e-06 1.9695051014423370e-04)
(3.0792172998189919e-02 7.7191625678096898e-06 1.7069507157430053e-04)
(3.0819561332464222e-02 6.6349875851301476e-06 1.7009276780299842e-04)
(3.0916383489966399e-02 -4.0917734622780699e-07 2.0954015781171620e-04)
(3.1022178009152419e-02 6.0259621932345900e-06 2.9541057301685219e-04)
(3.0793122947216041e-02 2.0953460989403538e-05 2.3593055084347719e-04)
(3.0533911660313599e-02 9.1330612121964805e-06 1.6243824211414903e-04)
(3.0374817550182339e-02 4.2528763515292658e-06 2.1223758812993759e-04)
(3.0009951442480080e-02 1.6306716133840382e-05 1.9612452888395637e-04)
(2.9674202203750621e-02 1.0555095286690630e-06 1.3592692266684026e-04)
(2.9459711164236058e-02 -1.4299257600214332e-06 1.0601110989227890e-04)
(2.8997538611292839e-02 1.3587896319222637e-05 1.6520236385986209e-04)
(2.8340023010969159e-02 1.7981152268475853e-05 2.3296226572711021e-04)
(2.7607977390289300e-02 1.6724376109777950e-05 1.6343756578862667e-04)
(2.6956550776958459e-02 9.2229438450885937e-06 1.3841618783771992e-04)
(2.6386788114905361e-02 9.7630017990013584e-06 1.3003355707041919e-04)
(2.5827478617429740e-02 9.0845496742986143e-06 9.9563243566080914e-05)
(2.5335850194096558e-02 6.3239945120585617e-06 1.6852884436957538e-04)
(2.4865929037332542e-02 7.3998994594148817e-06 2.3099582176655539e-04)
(2.4382742121815681e-02 4.1410589801671441e-06 2.6280488236807281e-04)
(2.3885833099484440e-02 7.6768064900534227e-06 2.5727562024258083e-04)
(2.3417284712195400e-02 7.8211978689068928e-06 2.2021643235348160e-04)
(2.2936552762985219e-02 6.0119023146398840e-06 1.9459216855466366e-04)
(2.2560598328709599e-02 3.2640609788359139e-06 1.5404120495077223e-04)
(2.2267263382673260e-02 6.7698761085921443e-07 1.1870756861753762e-04)
(2.1891325712203979e-02 4.9647765081317621e-06 1.4796046889387071e-04)
(2.1576389670371999e-02 -1.1548468137334567e-07 1.6081071225926280e-04)
(2.1331479772925380e-02 1.5174759937508497e-06 1.7096128431148827e-04)
(2.1008588373661041e-02 4.3844147512572818e-06 1.6744367894716561e-04)
(2.0657043904066079e-02 4.9001446313923216e-06 1.6887107631191611e-04)
(2.0315574482083321e-02 3.5501752790878518e-06 1.7652582027949393e-04)
(2.0025392994284619e-02 -9.5817438250378473e-07 1.5030332724563777e-04)
(1.9745424389839172e-02 3.0775886443734639e-06 1.5279490617103875e-04)
(1.9531942903995514e-02 -1.7173595097119687e-06 1.2565523502416909e-04)
(1.9450493156909943e-02 -3.4621559734659959e-06 1.2265628902241588e-04)
(1.9258106127381325e-02 6.3524621509714061e-06 1.0598960216157138e-04)
(1.8958022817969322e-02 2.5296305921074240e-06 6.0504018620122217e-05)
(1.8801366910338402e-02 -3.1297452096623601e-07 9.8253251053392874e-05)
(1.8760485574603081e-02 4.6302579903567681e-07 1.1844364780699834e-04)
(1.8745835870504379e-02 2.6709644771472081e-06 1.2329556921031326e-04)
(1.8737629055976868e-02 -6.8645476858364418e-08 1.3339336146600544e-04)
(1.8798163160681725e-02 -3.4984047942998582e-06 1.1626943887677044e-04)
(1.8901858478784561e-02 -1.6850651718414156e-07 1.0519074567127971e-04)
(1.8989689648151398e-02 -2.5698732315504462e-06 1.2554854038171470e-04)
(1.9046941772103310e-02 2.0124621187278539e-06 1.1581354192458095e-04)
(1.9075905904173851e-02 2.9197180992923681e-06 1.6232577036134899e-04)
(1.9117806106805801e-02 -1.5279119907063432e-06 2.1839496912434700e-04)
(1.9236812368035316e-02 -1.6834849247970851e-06 1.9982943194918334e-04)
(1.9396388903260231e-02 -5.9396943470346741e-06 1.9968768174294382e-04)
(1.9598778337240219e-02 -3.8629300433967720e-06 1.7043761909008026e-04)
(1.9760901108384132e-02 1.1931575727430754e-06 1.3374071568250656e-04)
(1.9850417971611023e-02 -2.0682953163486681e-06 1.0199895768892020e-04)
(2.0104762166738521e-02 -8.9616141849546693e-06 6.8618646764662117e-05)
(2.0498219877481461e-02 -7.8491229942301288e-06 8.4882158262189478e-05)
(2.0819414407014840e-02 -2.4683317860763059e-06 1.2632097059395164e-04)
(2.1086983382701881e-02 -5.8196396821585941e-06 1.7729212413541973e-04)
(2.1498661488294601e-02 -1.2045658877468668e-05 1.0367210779804736e-04)
(2.1966863423585899e-02 -5.1819833970512263e-06 8.4880513895768686e-05)
(2.2231033071875579e-02 -6.2058416006038897e-07 1.3262056745588779e-04)
(2.2613387554883960e-02 -1.2669250281760471e-05 1.3145359116606414e-04)
(2.3147193714976321e-02 -9.0510020527290180e-06 1.6466804663650692e-04)
(2.3551601916551580e-02 -6.0565735111595140e-06 2.4424208095297217e-04)
(2.4032875895500180e-02 -1.1873798939632252e-05 3.2039964571595197e-04)
(2.4563523009419441e-02 -1.1203002941329032e-05 2.2395451378542919e-04)
(2.5076879188418381e-02 -1.3357276657188775e-05 1.5141520998440683e-04)
(2.5548355653882020e-02 -1.0526351616135798e-05 1.7419939104001969e-04)
(2.5813698768615719e-02 -7.5695979830925361e-06 1.4180815196596086e-04)
(2.6019830256700519e-02 -1.0900265806412790e-05 8.5955427493900061e-05)
(2.6289107277989381e-02 -1.2664504538406618e-05 1.3086362741887569e-04)
(2.6486560702323921e-02 -1.2577223969856279e-05 1.7778322217054665e-04)
(2.6630247011780739e-02 -1.2970518582733348e-05 1.2982430052943528e-04)
(2.6768703013658520e-02 -1.1093994544353336e-05 9.7926400485448539e-05)
(2.6873052120208740e-02 -1.2270440493011849e-05 1.1291074042674154e-04)
(2.7003355324268341e-02 -1.4693894627271220e-05 1.4701773761771619e-04)
(2.7104690670967099e-02 -9.9826065707020462e-06 1.6795667761471123e-04)
(5.3522564470767982e-02 -2.6172623620368540e-05 2.8093310538679361e-04)
(7.9247668385505676e-02 -4.1607378079788759e-05 3.6720372736454021e-04)
(7.7822566032409654e-02 -3.6132230889052159e-05 3.1169730937108397e-04)
(7.6316893100738525e-02 -3.3862874261103577e-05 3.2591907074674959e-04)
(7.4802115559577942e-02 -1.9650915419333614e-05 3.7277635419741278e-04)
(7.2974301874637604e-02 -1.9338596757734194e-05 3.9759435458108777e-04)
(7.1088597178459154e-02 -2.5872814148897298e-05 3.9243014180101460e-04)
(6.9351807236671434e-02 -1.8237969925394282e-05 3.5871466388925899e-04)
(6.7785203456878662e-02 -2.4398937966907400e-05 3.3265940146520739e-04)
(6.6587239503860474e-02 -1.6359314031433314e-05 3.0365417478606099e-04)
(6.5590053796768175e-02 -7.9903638834366575e-06 2.8779031708836561e-04)
(6.1377505597981330e-02 -3.6493925885685657e-06 2.1461529619261083e-04))
;

boundaryField
{
    bottomWall
    {
        type            fixedValue;
        value           uniform (0 0 0);
    }
    defaultFaces
    {
        type            symmetry;
    }
    inlet
    {
        type            cyclic;
    }
    outlet
    {
        type            cyclic;
    }
    topWall
    {
        type            fixedValue;
        value           uniform (0 0 0);
    }
}